LAMMPS Atom File

          768 atoms
          512 bonds
          256 angles
            0 dihedrals
            0 impropers

        2 atom types
        1 bond types
        1 angle types

     0.00000   20.60000  xlo xhi
     0.00000   20.60000  ylo yhi
     0.00000   20.60000  zlo zhi

Masses

	1	15.9994
	2	1.00794

Atoms

      1    1  1 -0.8476      0.190   3.680   6.470
      2    1  2  0.4100     -0.630   4.110   6.860
      3    1  2  0.4238     -0.090   2.950   5.840
      4    2  1 -0.8476      5.690  12.751  11.651
      5    2  2  0.4238      4.760  12.681  11.281
      6    2  2  0.4238      5.800  13.641  12.091
      7    3  1 -0.8476     15.551  15.111   7.030
      8    3  2  0.4238     14.981  14.951   7.840
      9    3  2  0.4238     14.961  15.211   6.230
     10    4  1 -0.8476     17.431   6.180   8.560
     11    4  2  0.4238     17.761   7.120   8.560
     12    4  2  0.4238     17.941   5.640   9.220
     13    5  1 -0.8476     11.351   7.030   7.170
     14    5  2  0.4238     11.921   7.810   6.920
     15    5  2  0.4238     10.751   7.290   7.930
     16    6  1 -0.8476     17.551   6.070   2.310
     17    6  2  0.4238     17.431   5.940   1.320
     18    6  2  0.4238     17.251   5.260   2.800
     19    7  1 -0.8476      7.680  11.441  10.231
     20    7  2  0.4238      6.900  11.611  10.831
     21    7  2  0.4238      8.020  12.311   9.871
     22    8  1 -0.8476      8.500   7.980  18.231
     23    8  2  0.4238      8.460   8.740  18.881
     24    8  2  0.4238      8.720   8.340  17.321
     25    9  1 -0.8476      6.850  10.121   6.650
     26    9  2  0.4238      7.540   9.961   7.350
     27    9  2  0.4238      6.120  10.691   7.030
     28   10  1 -0.8476      6.860  11.611  18.031
     29   10  2  0.4238      7.460  12.401  18.171
     30   10  2  0.4238      6.000  11.921  17.621
     31   11  1 -0.8476      3.350  14.351  10.611
     32   11  2  0.4238      2.570  14.041  10.081
     33   11  2  0.4238      3.930  14.931  10.041
     34   12  1 -0.8476     14.601  15.051  13.391
     35   12  2  0.4238     14.841  15.991  13.651
     36   12  2  0.4238     14.441  14.511  14.211
     37   13  1 -0.8476      4.380   3.920  14.991
     38   13  2  0.4238      5.200   3.360  15.081
     39   13  2  0.4238      3.570   3.340  15.031
     40   14  1 -0.8476     16.031   4.470   7.370
     41   14  2  0.4238     15.291   4.930   6.870
     42   14  2  0.4238     16.541   5.150   7.900
     43   15  1 -0.8476      2.310  17.131   4.830
     44   15  2  0.4238      2.650  17.901   5.370
     45   15  2  0.4238      2.750  17.131   3.930
     46   16  1 -0.8476     11.271  13.411  16.901
     47   16  2  0.4238     11.741  13.411  17.781
     48   16  2  0.4238     10.791  12.541  16.791
     49   17  1 -0.8476      2.300  14.341   5.380
     50   17  2  0.4238      2.040  15.301   5.380
     51   17  2  0.4238      1.590  13.801   5.830
     52   18  1 -0.8476      2.400  10.911   8.860
     53   18  2  0.4238      2.540  10.071   9.380
     54   18  2  0.4238      1.850  11.551   9.410
     55   19  1 -0.8476      6.200  17.861  14.391
     56   19  2  0.4238      5.280  17.691  14.741
     57   19  2  0.4238      6.480  18.781  14.651
     58   20  1 -0.8476      6.060   9.641   1.230
     59   20  2  0.4238      6.130  10.481   0.690
     60   20  2  0.4238      6.520   9.771   2.110
     61   21  1 -0.8476     15.941   1.140  14.801
     62   21  2  0.4238     15.761   1.810  14.081
     63   21  2  0.4238     15.911   1.600  15.691
     64   22  1 -0.8476      1.220   6.430   5.630
     65   22  2  0.4238      0.770   5.550   5.800
     66   22  2  0.4238      1.210   6.970   6.470
     67   23  1 -0.8476     18.421  17.671   3.590
     68   23  2  0.4238     18.961  17.381   4.390
     69   23  2  0.4238     18.721  18.571   3.300
     70   24  1 -0.8476      0.270  15.961   1.170
     71   24  2  0.4238      0.080  15.001   1.380
     72   24  2  0.4238     -0.060  16.541   1.920
     73   25  1 -0.8476     16.891   9.220   6.120
     74   25  2  0.4238     17.841   8.930   6.200
     75   25  2  0.4238     16.811   9.870   5.370
     76   26  1 -0.8476     16.411  11.081   4.320
     77   26  2  0.4238     17.271  11.101   3.800
     78   26  2  0.4238     16.551  11.551   5.200
     79   27  1 -0.8476      6.130  13.651   7.260
     80   27  2  0.4238      5.640  12.781   7.350
     81   27  2  0.4238      5.900  14.081   6.390
     82   28  1 -0.8476     12.931  12.281  14.231
     83   28  2  0.4238     13.301  11.551  13.651
     84   28  2  0.4238     13.451  12.331  15.081
     85   29  1 -0.8476      8.090   0.040   5.020
     86   29  2  0.4238      8.490   0.950   4.930
     87   29  2  0.4238      7.090   0.120   5.080
     88   30  1 -0.8476     15.251   9.991   1.900
     89   30  2  0.4238     14.621   9.231   2.030
     90   30  2  0.4238     15.731  10.171   2.760
     91   31  1 -0.8476     11.871  17.921  16.161
     92   31  2  0.4238     12.111  18.521  15.401
     93   31  2  0.4238     11.941  16.971  15.861
     94   32  1 -0.8476      3.170   2.510  18.011
     95   32  2  0.4238      3.880   3.220  18.071
     96   32  2  0.4238      2.290   2.900  18.291
     97   33  1 -0.8476     14.661  14.171   9.531
     98   33  2  0.4238     14.071  14.231  10.331
     99   33  2  0.4238     14.511  13.291   9.071
    100   34  1 -0.8476     16.671  17.141   5.720
    101   34  2  0.4238     16.261  16.911   4.840
    102   34  2  0.4238     16.491  16.401   6.370
    103   35  1 -0.8476      5.980   7.290   2.700
    104   35  2  0.4238      6.220   7.980   2.020
    105   35  2  0.4238      5.200   7.620   3.240
    106   36  1 -0.8476     12.811   3.450   9.441
    107   36  2  0.4238     11.951   2.950   9.311
    108   36  2  0.4238     13.431   2.910  10.001
    109   37  1 -0.8476     15.761  16.621   3.070
    110   37  2  0.4238     16.651  17.081   3.100
    111   37  2  0.4238     15.551  16.381   2.120
    112   38  1 -0.8476      8.070   6.050  14.651
    113   38  2  0.4238      7.600   6.020  15.541
    114   38  2  0.4238      7.560   5.500  13.991
    115   39  1 -0.8476     13.941   4.690  16.741
    116   39  2  0.4238     13.741   5.120  17.621
    117   39  2  0.4238     14.721   4.070  16.831
    118   40  1 -0.8476      9.731   8.900  15.721
    119   40  2  0.4238     10.191   8.060  15.431
    120   40  2  0.4238      9.171   9.240  14.971
    121   41  1 -0.8476      9.911   4.100  12.421
    122   41  2  0.4238      9.141   4.440  12.961
    123   41  2  0.4238      9.571   3.590  11.631
    124   42  1 -0.8476     10.411   7.010   4.290
    125   42  2  0.4238     10.671   6.970   5.250
    126   42  2  0.4238      9.561   6.500   4.150
    127   43  1 -0.8476      1.300  18.211  15.711
    128   43  2  0.4238      1.200  18.061  16.701
    129   43  2  0.4238      0.440  18.571  15.351
    130   44  1 -0.8476      8.650   3.480   1.950
    131   44  2  0.4238      9.240   4.110   1.460
    132   44  2  0.4238      8.840   2.540   1.660
    133   45  1 -0.8476     17.191   5.850  18.311
    134   45  2  0.4238     16.931   6.740  17.951
    135   45  2  0.4238     17.171   5.170  17.581
    136   46  1 -0.8476     13.621  11.441   5.450
    137   46  2  0.4238     14.451  11.151   4.970
    138   46  2  0.4238     13.131  12.111   4.890
    139   47  1 -0.8476      5.500   1.960   8.850
    140   47  2  0.4238      5.450   1.910   9.850
    141   47  2  0.4238      5.520   2.920   8.560
    142   48  1 -0.8476     10.081  14.561   4.770
    143   48  2  0.4238      9.621  15.281   4.250
    144   48  2  0.4238     10.041  14.761   5.750
    145   49  1 -0.8476      3.510  18.011   8.530
    146   49  2  0.4238      4.010  17.151   8.590
    147   49  2  0.4238      4.160  18.781   8.500
    148   50  1 -0.8476     17.951  10.661   8.730
    149   50  2  0.4238     17.331  10.511   7.970
    150   50  2  0.4238     17.431  10.771   9.580
    151   51  1 -0.8476     12.271  15.501  15.061
    152   51  2  0.4238     12.331  14.731  15.701
    153   51  2  0.4238     11.751  15.241  14.261
    154   52  1 -0.8476      3.210   9.431   2.420
    155   52  2  0.4238      4.030   9.821   2.000
    156   52  2  0.4238      2.940   8.611   1.930
    157   53  1 -0.8476     14.581   7.350   7.280
    158   53  2  0.4238     14.531   6.700   8.030
    159   53  2  0.4238     15.381   7.940   7.410
    160   54  1 -0.8476      4.610  12.661  17.271
    161   54  2  0.4238      4.110  12.671  16.411
    162   54  2  0.4238      3.980  12.481  18.031
    163   55  1 -0.8476     11.111  17.761   2.370
    164   55  2  0.4238     10.511  17.141   2.870
    165   55  2  0.4238     11.421  17.321   1.520
    166   56  1 -0.8476      2.020   2.850  14.981
    167   56  2  0.4238      1.220   3.450  14.851
    168   56  2  0.4238      1.920   2.360  15.841
    169   57  1 -0.8476     16.321  13.771   0.810
    170   57  2  0.4238     16.001  14.711   0.710
    171   57  2  0.4238     15.561  13.141   0.690
    172   58  1 -0.8476      4.640  17.431   3.230
    173   58  2  0.4238      4.970  17.821   4.090
    174   58  2  0.4238      5.400  17.361   2.580
    175   59  1 -0.8476     14.001   1.070   4.260
    176   59  2  0.4238     13.761   0.700   3.360
    177   59  2  0.4238     14.991   1.230   4.300
    178   60  1 -0.8476      2.490  17.851  12.411
    179   60  2  0.4238      3.060  17.201  12.911
    180   60  2  0.4238      2.330  17.521  11.481
    181   61  1 -0.8476      9.401  16.981   9.040
    182   61  2  0.4238     10.201  16.411   9.250
    183   61  2  0.4238      8.911  16.581   8.270
    184   62  1 -0.8476      3.820   7.000   4.800
    185   62  2  0.4238      4.270   6.100   4.770
    186   62  2  0.4238      2.880   6.890   5.130
    187   63  1 -0.8476     15.471   2.220  17.291
    188   63  2  0.4238     15.421   2.590  18.211
    189   63  2  0.4238     14.751   1.530  17.171
    190   64  1 -0.8476      6.140   1.220   1.170
    191   64  2  0.4238      7.120   1.000   1.240
    192   64  2  0.4238      5.830   1.050   0.240
    193   65  1 -0.8476      7.810   2.640  17.491
    194   65  2  0.4238      8.480   2.030  17.921
    195   65  2  0.4238      7.080   2.830  18.141
    196   66  1 -0.8476      8.880  15.141  11.951
    197   66  2  0.4238      8.650  14.891  11.011
    198   66  2  0.4238      9.490  14.451  12.341
    199   67  1 -0.8476     13.511   5.900  14.331
    200   67  2  0.4238     13.791   5.470  15.181
    201   67  2  0.4238     13.761   6.860  14.341
    202   68  1 -0.8476      8.030  14.021   9.240
    203   68  2  0.4238      8.930  14.161   8.820
    204   68  2  0.4238      7.320  14.041   8.530
    205   69  1 -0.8476      9.220   5.030   8.990
    206   69  2  0.4238      8.970   4.940   8.030
    207   69  2  0.4238      9.700   4.210   9.300
    208   70  1 -0.8476      5.390   0.640   5.120
    209   70  2  0.4238      4.580   0.650   5.700
    210   70  2  0.4238      5.420   1.470   4.570
    211   71  1 -0.8476     14.341  11.881   0.410
    212   71  2  0.4238     14.661  11.121   0.980
    213   71  2  0.4238     13.421  12.151   0.710
    214   72  1 -0.8476      2.970   0.350   1.710
    215   72  2  0.4238      3.460   1.190   1.500
    216   72  2  0.4238      3.590  -0.300   2.160
    217   73  1 -0.8476      9.351   2.360   4.800
    218   73  2  0.4238      8.871   2.770   4.020
    219   73  2  0.4238     10.341   2.340   4.610
    220   74  1 -0.8476     10.761   6.830  14.641
    221   74  2  0.4238      9.961   6.220  14.671
    222   74  2  0.4238     11.571   6.300  14.401
    223   75  1 -0.8476     12.271  15.701   7.930
    224   75  2  0.4238     12.481  16.441   7.280
    225   75  2  0.4238     12.951  15.701   8.660
    226   76  1 -0.8476      4.590  11.521   7.410
    227   76  2  0.4238      3.880  11.251   8.060
    228   76  2  0.4238      4.330  11.241   6.480
    229   77  1 -0.8476     12.711  17.971   5.910
    230   77  2  0.4238     13.151  18.611   5.270
    231   77  2  0.4238     12.211  18.491   6.610
    232   78  1 -0.8476     10.321   5.490   0.160
    233   78  2  0.4238      9.911   6.310  -0.230
    234   78  2  0.4238     10.961   5.750   0.890
    235   79  1 -0.8476      5.610   2.220  11.471
    236   79  2  0.4238      5.990   1.380  11.841
    237   79  2  0.4238      4.730   2.410  11.911
    238   80  1 -0.8476      8.660   4.540   6.420
    239   80  2  0.4238      8.340   5.260   5.800
    240   80  2  0.4238      8.900   3.730   5.890
    241   81  1 -0.8476     10.171   0.390   7.530
    242   81  2  0.4238      9.451   0.440   6.840
    243   81  2  0.4238      9.931  -0.300   8.220
    244   82  1 -0.8476     14.291  11.731   8.670
    245   82  2  0.4238     13.741  10.891   8.600
    246   82  2  0.4238     14.551  12.021   7.750
    247   83  1 -0.8476     14.661   5.900   9.921
    248   83  2  0.4238     14.361   4.950   9.991
    249   83  2  0.4238     15.391   6.060  10.581
    250   84  1 -0.8476     18.571   8.330   3.770
    251   84  2  0.4238     18.991   7.690   4.410
    252   84  2  0.4238     18.191   7.820   2.990
    253   85  1 -0.8476      4.880  13.851   1.740
    254   85  2  0.4238      4.010  13.701   2.210
    255   85  2  0.4238      4.710  14.111   0.790
    256   86  1 -0.8476     16.641  12.801   6.570
    257   86  2  0.4238     17.631  12.881   6.710
    258   86  2  0.4238     16.191  13.641   6.880
    259   87  1 -0.8476     13.901   5.750   0.780
    260   87  2  0.4238     13.361   5.540   1.590
    261   87  2  0.4238     14.811   5.340   0.870
    262   88  1 -0.8476      5.270   2.560   3.280
    263   88  2  0.4238      5.540   1.970   2.530
    264   88  2  0.4238      5.270   3.510   2.970
    265   89  1 -0.8476     17.541  12.231  15.881
    266   89  2  0.4238     18.451  11.841  15.751
    267   89  2  0.4238     17.621  13.191  16.121
    268   90  1 -0.8476     10.641  13.471  13.401
    269   90  2  0.4238      9.841  13.241  13.951
    270   90  2  0.4238     11.471  13.211  13.891
    271   91  1 -0.8476     15.921  16.291  16.251
    272   91  2  0.4238     16.191  16.631  15.351
    273   91  2  0.4238     16.711  15.911  16.711
    274   92  1 -0.8476     11.111  11.951  11.001
    275   92  2  0.4238     10.711  12.391  11.811
    276   92  2  0.4238     10.701  12.321  10.171
    277   93  1 -0.8476     16.381  10.991  10.791
    278   93  2  0.4238     16.431  11.801  11.381
    279   93  2  0.4238     15.521  11.011  10.281
    280   94  1 -0.8476      9.150   0.890  14.021
    281   94  2  0.4238      9.400   0.690  13.071
    282   94  2  0.4238      9.870   1.450  14.441
    283   95  1 -0.8476      9.801  11.161  17.191
    284   95  2  0.4238      8.811  11.221  17.291
    285   95  2  0.4238     10.031  10.361  16.631
    286   96  1 -0.8476      7.050  10.501   3.680
    287   96  2  0.4238      6.910  10.571   4.670
    288   96  2  0.4238      7.890   9.991   3.500
    289   97  1 -0.8476     12.741   3.860  12.621
    290   97  2  0.4238     12.951   4.600  13.261
    291   97  2  0.4238     11.851   4.030  12.191
    292   98  1 -0.8476      3.670  11.001   5.010
    293   98  2  0.4238      3.600  11.831   4.450
    294   98  2  0.4238      3.710  10.201   4.410
    295   99  1 -0.8476      5.660   5.370   8.650
    296   99  2  0.4238      5.780   6.030   7.910
    297   99  2  0.4238      6.120   5.710   9.480
    298  100  1 -0.8476     12.521  13.481   3.880
    299  100  2  0.4238     13.021  14.251   4.280
    300  100  2  0.4238     11.571  13.501   4.200
    301  101  1 -0.8476     12.721  14.451  11.421
    302  101  2  0.4238     13.191  14.581  12.291
    303  101  2  0.4238     12.061  13.711  11.511
    304  102  1 -0.8476     15.821   6.390   4.720
    305  102  2  0.4238     15.511   7.000   5.450
    306  102  2  0.4238     16.321   6.910   4.030
    307  103  1 -0.8476      3.540  15.101  13.291
    308  103  2  0.4238      3.330  14.661  12.421
    309  103  2  0.4238      4.510  15.361  13.321
    310  104  1 -0.8476      4.020   7.510  15.981
    311  104  2  0.4238      4.700   8.060  15.511
    312  104  2  0.4238      4.420   6.630  16.251
    313  105  1 -0.8476     15.871   7.790  16.701
    314  105  2  0.4238     14.951   8.170  16.651
    315  105  2  0.4238     16.471   8.260  16.051
    316  106  1 -0.8476     10.131   1.050  17.701
    317  106  2  0.4238     10.191   1.900  17.181
    318  106  2  0.4238     10.451   0.290  17.131
    319  107  1 -0.8476      5.040   0.500  17.401
    320  107  2  0.4238      4.620  -0.070  16.701
    321  107  2  0.4238      4.380   1.190  17.721
    322  108  1 -0.8476      5.730   8.700  10.291
    323  108  2  0.4238      6.170   9.590  10.201
    324  108  2  0.4238      5.100   8.700  11.061
    325  109  1 -0.8476     13.601   8.620  10.451
    326  109  2  0.4238     12.851   8.620   9.791
    327  109  2  0.4238     13.971   7.700  10.541
    328  110  1 -0.8476     12.091   5.250   2.750
    329  110  2  0.4238     12.221   4.410   3.290
    330  110  2  0.4238     11.801   5.990   3.350
    331  111  1 -0.8476      3.070   2.130  12.311
    332  111  2  0.4238      2.840   2.500  13.211
    333  111  2  0.4238      2.770   1.180  12.251
    334  112  1 -0.8476      0.370  13.101  12.821
    335  112  2  0.4238      0.900  12.611  13.501
    336  112  2  0.4238      0.590  14.081  12.871
    337  113  1 -0.8476      7.320   6.340  10.641
    338  113  2  0.4238      7.910   6.080   9.881
    339  113  2  0.4238      7.040   7.300  10.531
    340  114  1 -0.8476     17.281   9.351  18.541
    341  114  2  0.4238     16.821   9.281  17.651
    342  114  2  0.4238     16.661   9.791  19.201
    343  115  1 -0.8476     16.221   3.670   3.740
    344  115  2  0.4238     16.241   2.910   4.380
    345  115  2  0.4238     15.741   4.440   4.140
    346  116  1 -0.8476     10.231   7.660   9.661
    347  116  2  0.4238     10.381   7.870  10.621
    348  116  2  0.4238      9.931   6.710   9.571
    349  117  1 -0.8476      9.801  15.731  17.001
    350  117  2  0.4238      9.601  16.171  16.121
    351  117  2  0.4238     10.191  14.821  16.841
    352  118  1 -0.8476     18.591  15.181  16.051
    353  118  2  0.4238     18.731  15.451  15.101
    354  118  2  0.4238     19.421  15.401  16.581
    355  119  1 -0.8476      3.500   8.980  18.041
    356  119  2  0.4238      4.260   9.420  18.521
    357  119  2  0.4238      3.850   8.510  17.221
    358  120  1 -0.8476     15.401   2.740   1.250
    359  120  2  0.4238     14.791   1.990   1.480
    360  120  2  0.4238     15.621   3.260   2.080
    361  121  1 -0.8476     13.031   8.380   0.420
    362  121  2  0.4238     13.371   7.450   0.570
    363  121  2  0.4238     13.211   8.650  -0.530
    364  122  1 -0.8476     10.681  13.331   8.490
    365  122  2  0.4238     10.751  12.491   7.940
    366  122  2  0.4238     11.301  14.021   8.130
    367  123  1 -0.8476      3.390   5.090  10.061
    368  123  2  0.4238      2.870   4.260   9.891
    369  123  2  0.4238      4.160   5.140   9.421
    370  124  1 -0.8476      5.110   4.150  18.081
    371  124  2  0.4238      4.930   4.600  18.961
    372  124  2  0.4238      5.530   4.800  17.451
    373  125  1 -0.8476     11.381   3.800  16.781
    374  125  2  0.4238     10.931   4.430  17.421
    375  125  2  0.4238     12.311   4.110  16.611
    376  126  1 -0.8476     11.601   2.070  14.771
    377  126  2  0.4238     11.601   2.710  15.541
    378  126  2  0.4238     11.881   2.550  13.941
    379  127  1 -0.8476      5.040  15.681   9.100
    380  127  2  0.4238      5.700  16.421   9.190
    381  127  2  0.4238      5.480  14.891   8.680
    382  128  1 -0.8476     10.021   7.960  12.381
    383  128  2  0.4238     10.431   7.640  13.241
    384  128  2  0.4238      9.061   7.690  12.351
    385  129  1 -0.8476      1.890   5.200  17.221
    386  129  2  0.4238      2.480   4.800  16.521
    387  129  2  0.4238      1.310   5.910  16.811
    388  130  1 -0.8476     13.691   9.501  16.601
    389  130  2  0.4238     14.081  10.391  16.801
    390  130  2  0.4238     13.791   9.301  15.631
    391  131  1 -0.8476      8.150   5.720   3.250
    392  131  2  0.4238      8.220   4.830   2.790
    393  131  2  0.4238      7.210   6.060   3.170
    394  132  1 -0.8476     16.571   6.040  12.061
    395  132  2  0.4238     16.191   5.350  12.681
    396  132  2  0.4238     17.391   5.680  11.621
    397  133  1 -0.8476      2.520  15.641  17.441
    398  133  2  0.4238      2.220  16.211  18.201
    399  133  2  0.4238      2.450  14.671  17.701
    400  134  1 -0.8476      6.710   4.640  12.691
    401  134  2  0.4238      6.370   3.750  12.391
    402  134  2  0.4238      6.970   5.180  11.891
    403  135  1 -0.8476      9.300  16.781  14.651
    404  135  2  0.4238      9.060  16.601  13.701
    405  135  2  0.4238      9.600  17.721  14.751
    406  136  1 -0.8476      4.730   5.000   1.910
    407  136  2  0.4238      5.340   5.800   1.950
    408  136  2  0.4238      3.780   5.310   1.980
    409  137  1 -0.8476      1.590  11.371  14.661
    410  137  2  0.4238      1.810  10.761  15.421
    411  137  2  0.4238      1.690  10.881  13.801
    412  138  1 -0.8476     13.471  10.591  12.341
    413  138  2  0.4238     13.711   9.961  11.601
    414  138  2  0.4238     12.571  10.991  12.161
    415  139  1 -0.8476     13.021   8.550   3.090
    416  139  2  0.4238     12.161   8.240   3.510
    417  139  2  0.4238     12.981   8.410   2.100
    418  140  1 -0.8476     17.591  17.471  11.541
    419  140  2  0.4238     18.201  17.771  10.811
    420  140  2  0.4238     17.211  16.581  11.321
    421  141  1 -0.8476     12.521  17.311  11.281
    422  141  2  0.4238     13.361  17.361  10.741
    423  141  2  0.4238     12.291  16.351  11.461
    424  142  1 -0.8476      0.830  12.581  10.221
    425  142  2  0.4238      0.780  12.571  11.221
    426  142  2  0.4238      0.000  12.171   9.841
    427  143  1 -0.8476      6.880  16.621  17.161
    428  143  2  0.4238      6.320  17.431  17.251
    429  143  2  0.4238      7.400  16.661  16.301
    430  144  1 -0.8476      9.030   0.860   1.330
    431  144  2  0.4238      9.540   0.870   0.470
    432  144  2  0.4238      9.590   0.440   2.040
    433  145  1 -0.8476     17.261   1.350   5.230
    434  145  2  0.4238     17.991   1.180   4.560
    435  145  2  0.4238     16.951   0.480   5.610
    436  146  1 -0.8476     13.881  15.731   4.770
    437  146  2  0.4238     14.551  15.851   4.030
    438  146  2  0.4238     13.481  16.621   5.000
    439  147  1 -0.8476      1.300  17.941  18.511
    440  147  2  0.4238      0.890  17.201  19.041
    441  147  2  0.4238      1.940  18.451  19.091
    442  148  1 -0.8476     12.801   9.270   6.720
    443  148  2  0.4238     13.401   8.460   6.740
    444  148  2  0.4238     13.201   9.960   6.120
    445  149  1 -0.8476      8.300  12.731  14.221
    446  149  2  0.4238      8.250  13.061  15.171
    447  149  2  0.4238      7.440  12.921  13.761
    448  150  1 -0.8476      6.720  16.161   1.540
    449  150  2  0.4238      6.810  16.261   0.550
    450  150  2  0.4238      6.320  15.271   1.750
    451  151  1 -0.8476     16.501  17.201  13.941
    452  151  2  0.4238     17.031  17.301  13.101
    453  151  2  0.4238     16.231  18.101  14.281
    454  152  1 -0.8476     18.411   1.750   9.631
    455  152  2  0.4238     18.801   0.900   9.271
    456  152  2  0.4238     17.431   1.770   9.441
    457  153  1 -0.8476      2.630   3.260   7.200
    458  153  2  0.4238      1.840   3.770   6.860
    459  153  2  0.4238      2.540   3.110   8.180
    460  154  1 -0.8476     11.941  16.121   0.310
    461  154  2  0.4238     12.001  15.191   0.680
    462  154  2  0.4238     11.351  16.121  -0.490
    463  155  1 -0.8476      8.220  10.021  13.721
    464  155  2  0.4238      8.620  10.011  12.801
    465  155  2  0.4238      8.320  10.941  14.121
    466  156  1 -0.8476      9.160   9.100   2.910
    467  156  2  0.4238      9.790   9.480   2.230
    468  156  2  0.4238      9.560   8.270   3.300
    469  157  1 -0.8476     15.041  16.071   0.440
    470  157  2  0.4238     14.121  16.441   0.510
    471  157  2  0.4238     15.421  16.271  -0.460
    472  158  1 -0.8476      3.720  12.881  14.901
    473  158  2  0.4238      3.590  13.811  14.561
    474  158  2  0.4238      2.880  12.361  14.771
    475  159  1 -0.8476     16.141  12.921  12.891
    476  159  2  0.4238     16.741  12.951  13.691
    477  159  2  0.4238     15.391  13.561  13.021
    478  160  1 -0.8476     10.391  10.981   6.960
    479  160  2  0.4238      9.691  10.511   7.500
    480  160  2  0.4238     10.981  10.301   6.530
    481  161  1 -0.8476     10.141   2.360   9.711
    482  161  2  0.4238     10.061   2.000   8.781
    483  161  2  0.4238     10.121   1.600  10.361
    484  162  1 -0.8476      5.900  14.871   4.910
    485  162  2  0.4238      6.320  14.291   4.210
    486  162  2  0.4238      5.460  15.661   4.470
    487  163  1 -0.8476     17.091   3.850  13.811
    488  163  2  0.4238     17.821   4.540  13.851
    489  163  2  0.4238     17.371   3.100  13.221
    490  164  1 -0.8476      2.550  13.481   2.900
    491  164  2  0.4238      1.590  13.491   2.630
    492  164  2  0.4238      2.670  14.011   3.740
    493  165  1 -0.8476      6.720   2.030  14.891
    494  165  2  0.4238      7.620   1.870  14.491
    495  165  2  0.4238      6.800   2.080  15.881
    496  166  1 -0.8476      0.750   3.450   0.330
    497  166  2  0.4238     -0.170   3.170   0.040
    498  166  2  0.4238      1.060   4.220  -0.230
    499  167  1 -0.8476     14.401   8.560  13.981
    500  167  2  0.4238     13.831   9.080  13.351
    501  167  2  0.4238     15.361   8.680  13.741
    502  168  1 -0.8476     11.831  13.351   1.190
    503  168  2  0.4238     10.841  13.241   1.210
    504  168  2  0.4238     12.171  13.501   2.120
    505  169  1 -0.8476      6.130   8.420  14.311
    506  169  2  0.4238      6.690   9.230  14.141
    507  169  2  0.4238      6.720   7.620  14.341
    508  170  1 -0.8476     14.931  17.671   9.591
    509  170  2  0.4238     15.261  18.311   8.901
    510  170  2  0.4238     15.591  17.611  10.341
    511  171  1 -0.8476      7.160   5.650  17.081
    512  171  2  0.4238      7.350   6.300  17.821
    513  171  2  0.4238      7.760   4.850  17.171
    514  172  1 -0.8476     14.501  12.201  16.331
    515  172  2  0.4238     14.411  12.101  17.321
    516  172  2  0.4238     15.461  12.131  16.071
    517  173  1 -0.8476      3.900  17.411  15.601
    518  173  2  0.4238      2.990  17.821  15.581
    519  173  2  0.4238      3.830  16.471  15.921
    520  174  1 -0.8476     16.741   8.830  12.541
    521  174  2  0.4238     16.471   7.940  12.171
    522  174  2  0.4238     16.751   9.510  11.811
    523  175  1 -0.8476     12.251   3.250   4.490
    524  175  2  0.4238     12.901   2.510   4.380
    525  175  2  0.4238     12.451   3.750   5.330
    526  176  1 -0.8476      5.940   7.450   6.520
    527  176  2  0.4238      6.440   8.300   6.330
    528  176  2  0.4238      5.060   7.470   6.040
    529  177  1 -0.8476     17.771   3.420  16.421
    530  177  2  0.4238     17.601   3.730  15.481
    531  177  2  0.4238     16.931   3.050  16.801
    532  178  1 -0.8476     17.301   9.341  15.171
    533  178  2  0.4238     17.681  10.251  15.321
    534  178  2  0.4238     17.221   9.171  14.181
    535  179  1 -0.8476      8.590  13.741   0.160
    536  179  2  0.4238      8.130  13.891   1.040
    537  179  2  0.4238      9.030  14.591  -0.140
    538  180  1 -0.8476      6.610  17.901   9.531
    539  180  2  0.4238      6.150  18.781   9.401
    540  180  2  0.4238      7.600  18.021   9.461
    541  181  1 -0.8476     14.081  18.511  17.201
    542  181  2  0.4238     13.121  18.401  16.931
    543  181  2  0.4238     14.641  17.841  16.721
    544  182  1 -0.8476      8.590   9.561   8.610
    545  182  2  0.4238      9.130   8.871   9.090
    546  182  2  0.4238      8.270  10.251   9.270
    547  183  1 -0.8476     10.831   9.841   0.870
    548  183  2  0.4238     10.601  10.371   0.050
    549  183  2  0.4238     11.641   9.281   0.680
    550  184  1 -0.8476     18.611  15.691   8.510
    551  184  2  0.4238     17.901  15.571   7.810
    552  184  2  0.4238     18.621  14.901   9.110
    553  185  1 -0.8476      6.720  13.911  16.241
    554  185  2  0.4238      5.940  13.411  16.621
    555  185  2  0.4238      6.690  14.861  16.551
    556  186  1 -0.8476     18.241   1.920  12.271
    557  186  2  0.4238     18.201   1.020  12.711
    558  186  2  0.4238     18.271   1.810  11.281
    559  187  1 -0.8476      4.280   4.240   5.200
    560  187  2  0.4238      4.580   3.520   4.580
    561  187  2  0.4238      3.890   3.840   6.030
    562  188  1 -0.8476     17.051  14.871  11.041
    563  188  2  0.4238     16.121  14.621  10.771
    564  188  2  0.4238     17.311  14.371  11.861
    565  189  1 -0.8476      3.170   5.470  12.801
    566  189  2  0.4238      3.550   4.880  13.521
    567  189  2  0.4238      3.570   5.210  11.921
    568  190  1 -0.8476      8.120  15.861   6.870
    569  190  2  0.4238      8.440  15.961   5.930
    570  190  2  0.4238      7.330  15.241   6.890
    571  191  1 -0.8476     14.241   2.140  11.121
    572  191  2  0.4238     14.761   1.490  11.671
    573  191  2  0.4238     13.751   2.770  11.731
    574  192  1 -0.8476     10.011   0.340  11.541
    575  192  2  0.4238      9.381  -0.380  11.231
    576  192  2  0.4238     10.941  -0.020  11.541
    577  193  1 -0.8476      7.700  13.301   3.010
    578  193  2  0.4238      7.240  12.431   3.180
    579  193  2  0.4238      8.610  13.271   3.420
    580  194  1 -0.8476      6.180  15.671  12.841
    581  194  2  0.4238      6.130  16.491  13.411