LAMMPS (24 Apr 2013)
WARNING: OMP_NUM_THREADS environment is not set. (../comm.cpp:100)
  using 1 OpenMP thread(s) per MPI task
# SPC water box

# Define units and forcefield styles
units		real
atom_style	full
boundary        p p p
pair_style	lj/cut/coul/long 9.8 9.8
pair_modify     mix arithmetic
kspace_style	pppm 1.0e-4
bond_style	harmonic
angle_style	harmonic
dihedral_style	none
improper_style	none

# Read the data file
read_data	spc.data
  2 = max bonds/atom
  1 = max angles/atom
  orthogonal box = (0 0 0) to (20.75 20.75 20.75)
  1 by 1 by 1 MPI processor grid
  768 atoms
  512 bonds
  256 angles
  2 = max # of 1-2 neighbors
  1 = max # of 1-3 neighbors
  1 = max # of 1-4 neighbors
  2 = max # of special neighbors

# Non-bonded parameters
pair_coeff	1   1    0.15535    3.166
pair_coeff	*   2    0.00000    0.000

# Bond parameters
bond_coeff	1 1000.00 1.000

# Angle parameters
angle_coeff	1 100.0 109.47

# 1-4 Interactions
special_bonds   lj/coul 0.0 0.0 0.5
  2 = max # of 1-2 neighbors
  1 = max # of 1-3 neighbors
  1 = max # of 1-4 neighbors
  2 = max # of special neighbors

# Write initial structure out
dump            icrd all custom 5 system.lammpstrj id mol type x y z ix iy iz
dump_modify     icrd sort id
run             1
WARNING: No fixes defined, atoms won't move (../verlet.cpp:54)
PPPM initialization ...
  G vector (1/distance) = 0.277067
  grid = 12 12 12
  stencil order = 5
  estimated absolute RMS force accuracy = 0.0185779
  estimated relative force accuracy = 5.59469e-05
  using double precision FFTs
  3d grid and FFT values/proc = 6859 1728
Memory usage per processor = 6.09658 Mbytes
Step Temp E_pair E_mol TotEng Press 
       0            0    1713.6448    9.5570793    1723.2019    135635.51 
       1            0    1713.6448    9.5570793    1723.2019    135635.51 
Loop time of 0.00749898 on 1 procs (1 MPI x 1 OpenMP) for 1 steps with 768 atoms

Pair  time (%) = 0.00671601 (89.559)
Bond  time (%) = 4.81606e-05 (0.642228)
Kspce time (%) = 0.000571966 (7.62725)
Neigh time (%) = 0 (0)
Comm  time (%) = 4.19617e-05 (0.559565)
Outpt time (%) = 0.000110149 (1.46886)
Other time (%) = 1.07288e-05 (0.143071)

FFT time (% of Kspce) = 7.76036e-05 (13.5679)
FFT Gflps 3d (1d only) = 3.31988 9.07268

Nlocal:    768 ave 768 max 768 min
Histogram: 1 0 0 0 0 0 0 0 0 0
Nghost:    6732 ave 6732 max 6732 min
Histogram: 1 0 0 0 0 0 0 0 0 0
Neighs:    227386 ave 227386 max 227386 min
Histogram: 1 0 0 0 0 0 0 0 0 0

Total # of neighbors = 227386
Ave neighs/atom = 296.076
Ave special neighs/atom = 2
Neighbor list builds = 0
Dangerous builds = 0

# Reset the timestep
undump          icrd
reset_timestep  0

# Timestep and Neighbour searching
timestep	2.0
neighbor        2.0 bin
neigh_modify	every 1 delay 10 check yes

# Computes
compute rdf all rdf 100 1 1 1 2 2 2
compute msd all msd com yes

# Fixes
fix		1 all shake 0.0001 20 0 b 1 a 1
  0 = # of size 2 clusters
  0 = # of size 3 clusters
  0 = # of size 4 clusters
  256 = # of frozen angles
fix		2 all npt temp 300.0 300.0 100.0 iso 1.0 1.0 100.0
fix		rdf all ave/time 1 250000 250000 c_rdf file rdf.xvg mode vector
fix		msd all ave/time 1 50000 50000 c_msd file msd.xvg mode vector

# Initial velocity
velocity	all create 300 432567 dist uniform

# Write out thermodynamic information
thermo_style    custom step temp press vol pe ke evdwl ecoul epair
thermo	        250

# Write out trajectory
dump            cxtc all xtc 250 traj-0.xtc

# Write out velocity
#dump 		1 all custom 1 vel_npt.txt vx vy vz

# Checkpoint files
restart         5000 state_cpt-*.data

# Final run command
run             250000
PPPM initialization ...
  G vector (1/distance) = 0.277067
  grid = 12 12 12
  stencil order = 5
  estimated absolute RMS force accuracy = 0.0185779
  estimated relative force accuracy = 5.59469e-05
  using double precision FFTs
  3d grid and FFT values/proc = 6859 1728
Memory usage per processor = 6.84487 Mbytes
Step Temp Press Volume PotEng KinEng E_vdwl E_coul E_pair 
       0          300    121853.68    8934.1719    1713.6448    456.95818    4043.2366    10998.442    1713.6448 
WARNING: Building an occasional neighobr list when atoms may have moved too far (../neighbor.cpp:1401)
WARNING: Building an occasional neighobr list when atoms may have moved too far (../neighbor.cpp:1401)
WARNING: Building an occasional neighobr list when atoms may have moved too far (../neighbor.cpp:1401)
WARNING: Building an occasional neighobr list when atoms may have moved too far (../neighbor.cpp:1401)
WARNING: Building an occasional neighobr list when atoms may have moved too far (../neighbor.cpp:1401)
WARNING: Building an occasional neighobr list when atoms may have moved too far (../neighbor.cpp:1401)
WARNING: Building an occasional neighobr list when atoms may have moved too far (../neighbor.cpp:1401)
WARNING: Building an occasional neighobr list when atoms may have moved too far (../neighbor.cpp:1401)
WARNING: Building an occasional neighobr list when atoms may have moved too far (../neighbor.cpp:1401)
WARNING: Building an occasional neighobr list when atoms may have moved too far (../neighbor.cpp:1401)
WARNING: Building an occasional neighobr list when atoms may have moved too far (../neighbor.cpp:1401)
WARNING: Building an occasional neighobr list when atoms may have moved too far (../neighbor.cpp:1401)
WARNING: Building an occasional neighobr list when atoms may have moved too far (../neighbor.cpp:1401)
WARNING: Building an occasional neighobr list when atoms may have moved too far (../neighbor.cpp:1401)
WARNING: Building an occasional neighobr list when atoms may have moved too far (../neighbor.cpp:1401)
WARNING: Building an occasional neighobr list when atoms may have moved too far (../neighbor.cpp:1401)
WARNING: Building an occasional neighobr list when atoms may have moved too far (../neighbor.cpp:1401)
WARNING: Building an occasional neighobr list when atoms may have moved too far (../neighbor.cpp:1401)
WARNING: Building an occasional neighobr list when atoms may have moved too far (../neighbor.cpp:1401)
WARNING: Building an occasional neighobr list when atoms may have moved too far (../neighbor.cpp:1401)
WARNING: Building an occasional neighobr list when atoms may have moved too far (../neighbor.cpp:1401)
WARNING: Building an occasional neighobr list when atoms may have moved too far (../neighbor.cpp:1401)
WARNING: Building an occasional neighobr list when atoms may have moved too far (../neighbor.cpp:1401)
WARNING: Building an occasional neighobr list when atoms may have moved too far (../neighbor.cpp:1401)
WARNING: Building an occasional neighobr list when atoms may have moved too far (../neighbor.cpp:1401)
WARNING: Building an occasional neighobr list when atoms may have moved too far (../neighbor.cpp:1401)
WARNING: Building an occasional neighobr list when atoms may have moved too far (../neighbor.cpp:1401)
WARNING: Building an occasional neighobr list when atoms may have moved too far (../neighbor.cpp:1401)
WARNING: Building an occasional neighobr list when atoms may have moved too far (../neighbor.cpp:1401)
WARNING: Building an occasional neighobr list when atoms may have moved too far (../neighbor.cpp:1401)
WARNING: Building an occasional neighobr list when atoms may have moved too far (../neighbor.cpp:1401)
WARNING: Building an occasional neighobr list when atoms may have moved too far (../neighbor.cpp:1401)
WARNING: Building an occasional neighobr list when atoms may have moved too far (../neighbor.cpp:1401)
WARNING: Building an occasional neighobr list when atoms may have moved too far (../neighbor.cpp:1401)
WARNING: Building an occasional neighobr list when atoms may have moved too far (../neighbor.cpp:1401)
WARNING: Building an occasional neighobr list when atoms may have moved too far (../neighbor.cpp:1401)
WARNING: Building an occasional neighobr list when atoms may have moved too far (../neighbor.cpp:1401)
WARNING: Building an occasional neighobr list when atoms may have moved too far (../neighbor.cpp:1401)
WARNING: Building an occasional neighobr list when atoms may have moved too far (../neighbor.cpp:1401)
WARNING: Building an occasional neighobr list when atoms may have moved too far (../neighbor.cpp:1401)
WARNING: Building an occasional neighobr list when atoms may have moved too far (../neighbor.cpp:1401)
WARNING: Building an occasional neighobr list when atoms may have moved too far (../neighbor.cpp:1401)
WARNING: Building an occasional neighobr list when atoms may have moved too far (../neighbor.cpp:1401)
WARNING: Building an occasional neighobr list when atoms may have moved too far (../neighbor.cpp:1401)
WARNING: Building an occasional neighobr list when atoms may have moved too far (../neighbor.cpp:1401)
WARNING: Building an occasional neighobr list when atoms may have moved too far (../neighbor.cpp:1401)
     250    323.65481    17.191235    15368.479   -2154.7919    492.98905    392.67789    10826.551   -2154.7919 
WARNING: Building an occasional neighobr list when atoms may have moved too far (../neighbor.cpp:1401)
WARNING: Building an occasional neighobr list when atoms may have moved too far (../neighbor.cpp:1401)
     500    317.26444   -129.16215    15857.711   -2214.5177    483.25528    397.74259    10767.264   -2214.5177 
WARNING: Building an occasional neighobr list when atoms may have moved too far (../neighbor.cpp:1401)
     750    299.27694   -80.272795    13646.697   -2345.7329    455.85682    445.20045     10593.38   -2345.7329 
WARNING: Building an occasional neighobr list when atoms may have moved too far (../neighbor.cpp:1401)
WARNING: Building an occasional neighobr list when atoms may have moved too far (../neighbor.cpp:1401)
    1000    288.46452    -173.5857    12249.349   -2387.4298    439.38741    445.78816    10549.773   -2387.4298 
WARNING: Building an occasional neighobr list when atoms may have moved too far (../neighbor.cpp:1401)
WARNING: Building an occasional neighobr list when atoms may have moved too far (../neighbor.cpp:1401)
WARNING: Building an occasional neighobr list when atoms may have moved too far (../neighbor.cpp:1401)
WARNING: Building an occasional neighobr list when atoms may have moved too far (../neighbor.cpp:1401)
    1250    284.74695    200.78844    11039.414   -2391.4193    433.72483    459.09001    10534.138   -2391.4193 
WARNING: Building an occasional neighobr list when atoms may have moved too far (../neighbor.cpp:1401)
    1500    292.90669   -564.95265    10182.247   -2390.8565     446.1537    416.40838    10579.689   -2390.8565 
WARNING: Building an occasional neighobr list when atoms may have moved too far (../neighbor.cpp:1401)
    1750    316.63171    1120.1734    8755.1606   -2476.3415    482.29149    474.02335    10442.096   -2476.3415 
WARNING: Building an occasional neighobr list when atoms may have moved too far (../neighbor.cpp:1401)
WARNING: Building an occasional neighobr list when atoms may have moved too far (../neighbor.cpp:1401)
WARNING: Building an occasional neighobr list when atoms may have moved too far (../neighbor.cpp:1401)
WARNING: Building an occasional neighobr list when atoms may have moved too far (../neighbor.cpp:1401)
WARNING: Building an occasional neighobr list when atoms may have moved too far (../neighbor.cpp:1401)
WARNING: Building an occasional neighobr list when atoms may have moved too far (../neighbor.cpp:1401)
WARNING: Building an occasional neighobr list when atoms may have moved too far (../neighbor.cpp:1401)
    2000    307.89879    633.88814    8422.0443   -2470.3797    468.98957     459.6917    10463.395   -2470.3797 
WARNING: Building an occasional neighobr list when atoms may have moved too far (../neighbor.cpp:1401)
WARNING: Building an occasional neighobr list when atoms may have moved too far (../neighbor.cpp:1401)
WARNING: Building an occasional neighobr list when atoms may have moved too far (../neighbor.cpp:1401)
    2250    293.51765    35.561799    8128.3824   -2495.5004     447.0843    424.83405    10471.283   -2495.5004 
WARNING: Building an occasional neighobr list when atoms may have moved too far (../neighbor.cpp:1401)
WARNING: Building an occasional neighobr list when atoms may have moved too far (../neighbor.cpp:1401)
WARNING: Building an occasional neighobr list when atoms may have moved too far (../neighbor.cpp:1401)
    2500     306.9834    -413.6003    8100.5232   -2512.9778    467.59525    422.38823    10456.072   -2512.9778 
WARNING: Building an occasional neighobr list when atoms may have moved too far (../neighbor.cpp:1401)
WARNING: Building an occasional neighobr list when atoms may have moved too far (../neighbor.cpp:1401)
    2750    288.35761   -946.63856    8185.7329    -2516.098    439.22456    411.96833    10463.368    -2516.098 
WARNING: Building an occasional neighobr list when atoms may have moved too far (../neighbor.cpp:1401)
    3000    293.51169   -539.28521    7864.5824   -2530.3583    447.07522    413.34843    10450.597   -2530.3583 
WARNING: Building an occasional neighobr list when atoms may have moved too far (../neighbor.cpp:1401)
    3250    296.61295    -44.34016    7915.7282   -2518.0694    451.79905    433.97658    10440.534   -2518.0694 
    3500    310.01659     292.8493    7864.4166   -2508.5579    472.21539    424.88313    10459.552   -2508.5579 
WARNING: Building an occasional neighobr list when atoms may have moved too far (../neighbor.cpp:1401)
WARNING: Building an occasional neighobr list when atoms may have moved too far (../neighbor.cpp:1401)
WARNING: Building an occasional neighobr list when atoms may have moved too far (../neighbor.cpp:1401)
    3750    318.58734    292.56715    7997.2665   -2512.0598     485.2703     438.4533     10443.78   -2512.0598 
WARNING: Building an occasional neighobr list when atoms may have moved too far (../neighbor.cpp:1401)
WARNING: Building an occasional neighobr list when atoms may have moved too far (../neighbor.cpp:1401)
WARNING: Building an occasional neighobr list when atoms may have moved too far (../neighbor.cpp:1401)
WARNING: Building an occasional neighobr list when atoms may have moved too far (../neighbor.cpp:1401)
WARNING: Building an occasional neighobr list when atoms may have moved too far (../neighbor.cpp:1401)
WARNING: Building an occasional neighobr list when atoms may have moved too far (../neighbor.cpp:1401)
    4000    294.04967   -728.93122    7798.9083   -2511.3737    447.89467    386.96296    10495.897   -2511.3737 
WARNING: Building an occasional neighobr list when atoms may have moved too far (../neighbor.cpp:1401)
WARNING: Building an occasional neighobr list when atoms may have moved too far (../neighbor.cpp:1401)
WARNING: Building an occasional neighobr list when atoms may have moved too far (../neighbor.cpp:1401)
    4250    310.53371    120.16351     8100.087   -2530.1848    473.00306    451.56815    10408.514   -2530.1848 
WARNING: Building an occasional neighobr list when atoms may have moved too far (../neighbor.cpp:1401)
WARNING: Building an occasional neighobr list when atoms may have moved too far (../neighbor.cpp:1401)
    4500    308.26544   -67.116698     7950.814   -2511.2574    469.54804    427.04714    10454.022   -2511.2574 
    4750    297.59677   -340.99547    7901.4059   -2565.1745     453.2976    436.68177    10392.497   -2565.1745 
WARNING: Building an occasional neighobr list when atoms may have moved too far (../neighbor.cpp:1401)
    5000    293.97352    181.97411    7974.9086   -2529.4651    447.77869    442.93644    10421.938   -2529.4651 
    5250    293.23021    -422.2506    7906.1917   -2529.7081    446.64647    423.32958    10439.683   -2529.7081 
WARNING: Building an occasional neighobr list when atoms may have moved too far (../neighbor.cpp:1401)
WARNING: Building an occasional neighobr list when atoms may have moved too far (../neighbor.cpp:1401)
    5500    320.73326   -738.21821     7954.453    -2545.856    488.53896     415.6986    10428.451    -2545.856 
WARNING: Building an occasional neighobr list when atoms may have moved too far (../neighbor.cpp:1401)
WARNING: Building an occasional neighobr list when atoms may have moved too far (../neighbor.cpp:1401)
    5750    306.81423    514.14281    7894.7764   -2526.4725    467.33757    454.83189    10410.144   -2526.4725 
WARNING: Building an occasional neighobr list when atoms may have moved too far (../neighbor.cpp:1401)
    6000    306.33945    78.023534    7999.9987   -2586.5119     466.6144    472.56909    10332.215   -2586.5119 
WARNING: Building an occasional neighobr list when atoms may have moved too far (../neighbor.cpp:1401)
WARNING: Building an occasional neighobr list when atoms may have moved too far (../neighbor.cpp:1401)
WARNING: Building an occasional neighobr list when atoms may have moved too far (../neighbor.cpp:1401)
WARNING: Building an occasional neighobr list when atoms may have moved too far (../neighbor.cpp:1401)
WARNING: Building an occasional neighobr list when atoms may have moved too far (../neighbor.cpp:1401)
WARNING: Building an occasional neighobr list when atoms may have moved too far (../neighbor.cpp:1401)
WARNING: Building an occasional neighobr list when atoms may have moved too far (../neighbor.cpp:1401)
WARNING: Building an occasional neighobr list when atoms may have moved too far (../neighbor.cpp:1401)
    6250    311.61891    129.36685    7972.8672   -2521.2277    474.65603    437.02708    10433.023   -2521.2277 
WARNING: Building an occasional neighobr list when atoms may have moved too far (../neighbor.cpp:1401)
WARNING: Building an occasional neighobr list when atoms may have moved too far (../neighbor.cpp:1401)
    6500    299.71004   -857.69318    7970.1711    -2522.886    456.51651    401.81888    10467.484    -2522.886 
WARNING: Building an occasional neighobr list when atoms may have moved too far (../neighbor.cpp:1401)
WARNING: Building an occasional neighobr list when atoms may have moved too far (../neighbor.cpp:1401)
WARNING: Building an occasional neighobr list when atoms may have moved too far (../neighbor.cpp:1401)
WARNING: Building an occasional neighobr list when atoms may have moved too far (../neighbor.cpp:1401)
WARNING: Building an occasional neighobr list when atoms may have moved too far (../neighbor.cpp:1401)
WARNING: Building an occasional neighobr list when atoms may have moved too far (../neighbor.cpp:1401)
WARNING: Building an occasional neighobr list when atoms may have moved too far (../neighbor.cpp:1401)
    6750    282.45891    816.07177    7827.5921   -2530.0704    430.23969    462.59938    10400.996   -2530.0704 
WARNING: Building an occasional neighobr list when atoms may have moved too far (../neighbor.cpp:1401)
WARNING: Building an occasional neighobr list when atoms may have moved too far (../neighbor.cpp:1401)
WARNING: Building an occasional neighobr list when atoms may have moved too far (../neighbor.cpp:1401)
WARNING: Building an occasional neighobr list when atoms may have moved too far (../neighbor.cpp:1401)
WARNING: Building an occasional neighobr list when atoms may have moved too far (../neighbor.cpp:1401)
    7000    300.96778    56.396374    7961.0591   -2549.0033     458.4323    455.14672    10387.635   -2549.0033 
    7250    294.73709    90.888103    7956.3259   -2533.5972    448.94175    445.72586    10414.376   -2533.5972 
WARNING: Building an occasional neighobr list when atoms may have moved too far (../neighbor.cpp:1401)
WARNING: Building an occasional neighobr list when atoms may have moved too far (../neighbor.cpp:1401)
WARNING: Building an occasional neighobr list when atoms may have moved too far (../neighbor.cpp:1401)
WARNING: Building an occasional neighobr list when atoms may have moved too far (../neighbor.cpp:1401)
WARNING: Building an occasional neighobr list when atoms may have moved too far (../neighbor.cpp:1401)
    7500    295.84164    317.42444    7834.3467   -2504.3275    450.62419    432.84287    10454.854   -2504.3275 
WARNING: Building an occasional neighobr list when atoms may have moved too far (../neighbor.cpp:1401)
WARNING: Building an occasional neighobr list when atoms may have moved too far (../neighbor.cpp:1401)
WARNING: Building an occasional neighobr list when atoms may have moved too far (../neighbor.cpp:1401)
    7750    306.46072   -306.77314    7980.1493   -2525.2065    466.79911    420.60499    10446.818   -2525.2065 
WARNING: Building an occasional neighobr list when atoms may have moved too far (../neighbor.cpp:1401)
    8000    299.40559    1034.7528    7638.0364   -2569.0184    456.05278    467.38523    10354.665   -2569.0184 
WARNING: Building an occasional neighobr list when atoms may have moved too far (../neighbor.cpp:1401)
WARNING: Building an occasional neighobr list when atoms may have moved too far (../neighbor.cpp:1401)
WARNING: Building an occasional neighobr list when atoms may have moved too far (../neighbor.cpp:1401)
WARNING: Building an occasional neighobr list when atoms may have moved too far (../neighbor.cpp:1401)
    8250    290.90775    -57.62302    7898.9828   -2518.9973    443.10892    431.22266    10442.772   -2518.9973 
WARNING: Building an occasional neighobr list when atoms may have moved too far (../neighbor.cpp:1401)
WARNING: Building an occasional neighobr list when atoms may have moved too far (../neighbor.cpp:1401)
    8500    305.09153   -69.074869    7876.7352   -2537.2017    464.71356    426.48441    10429.647   -2537.2017 
WARNING: Building an occasional neighobr list when atoms may have moved too far (../neighbor.cpp:1401)
WARNING: Building an occasional neighobr list when atoms may have moved too far (../neighbor.cpp:1401)
WARNING: Building an occasional neighobr list when atoms may have moved too far (../neighbor.cpp:1401)
    8750    299.42806     83.72132    8128.8805   -2499.3866    456.08701    438.52093    10454.648   -2499.3866 
WARNING: Building an occasional neighobr list when atoms may have moved too far (../neighbor.cpp:1401)
WARNING: Building an occasional neighobr list when atoms may have moved too far (../neighbor.cpp:1401)
    9000     298.6082   -75.206695     8165.552    -2509.307    454.83819     436.4836    10448.761    -2509.307 
WARNING: Building an occasional neighobr list when atoms may have moved too far (../neighbor.cpp:1401)
    9250    276.68313    214.84771    7963.0438     -2533.93    421.44207    452.60384    10406.516     -2533.93 
WARNING: Building an occasional neighobr list when atoms may have moved too far (../neighbor.cpp:1401)
    9500    303.32711   -149.08582    8030.5781   -2566.3694    462.02602    452.03872    10375.639   -2566.3694 
WARNING: Building an occasional neighobr list when atoms may have moved too far (../neighbor.cpp:1401)
WARNING: Building an occasional neighobr list when atoms may have moved too far (../neighbor.cpp:1401)
WARNING: Building an occasional neighobr list when atoms may have moved too far (../neighbor.cpp:1401)
    9750    308.97387   -1484.4013    8398.3872   -2509.0944    470.62713    397.29534    10486.217   -2509.0944 
WARNING: Building an occasional neighobr list when atoms may have moved too far (../neighbor.cpp:1401)
   10000    289.49994   -564.50158    8279.4195   -2497.2594    440.96455     429.7462    10466.526   -2497.2594 
WARNING: Building an occasional neighobr list when atoms may have moved too far (../neighbor.cpp:1401)
WARNING: Building an occasional neighobr list when atoms may have moved too far (../neighbor.cpp:1401)
WARNING: Building an occasional neighobr list when atoms may have moved too far (../neighbor.cpp:1401)
   10250    297.74228    651.34278    7975.4896   -2542.6574    453.51923    474.12555    10376.452   -2542.6574 
WARNING: Building an occasional neighobr list when atoms may have moved too far (../neighbor.cpp:1401)
WARNING: Building an occasional neighobr list when atoms may have moved too far (../neighbor.cpp:1401)
WARNING: Building an occasional neighobr list when atoms may have moved too far (../neighbor.cpp:1401)
WARNING: Building an occasional neighobr list when atoms may have moved too far (../neighbor.cpp:1401)
WARNING: Building an occasional neighobr list when atoms may have moved too far (../neighbor.cpp:1401)
WARNING: Building an occasional neighobr list when atoms may have moved too far (../neighbor.cpp:1401)
   10500    312.81023   -24.955668    7992.7915    -2556.437    476.47065    448.70818    10387.759    -2556.437 
WARNING: Building an occasional neighobr list when atoms may have moved too far (../neighbor.cpp:1401)
WARNING: Building an occasional neighobr list when atoms may have moved too far (../neighbor.cpp:1401)
WARNING: Building an occasional neighobr list when atoms may have moved too far (../neighbor.cpp:1401)
   10750    291.65499   -49.188393    7606.6439   -2535.4229    444.24712    404.94349    10452.984   -2535.4229 
   11000    298.76763    8.7471799    7790.3593   -2547.8108    455.08104    434.82646    10408.432   -2547.8108 
WARNING: Building an occasional neighobr list when atoms may have moved too far (../neighbor.cpp:1401)
WARNING: Building an occasional neighobr list when atoms may have moved too far (../neighbor.cpp:1401)
WARNING: Building an occasional neighobr list when atoms may have moved too far (../neighbor.cpp:1401)
WARNING: Building an occasional neighobr list when atoms may have moved too far (../neighbor.cpp:1401)
WARNING: Building an occasional neighobr list when atoms may have moved too far (../neighbor.cpp:1401)
WARNING: Building an occasional neighobr list when atoms may have moved too far (../neighbor.cpp:1401)
WARNING: Building an occasional neighobr list when atoms may have moved too far (../neighbor.cpp:1401)
   11250    316.18059    238.51536    7611.5601   -2499.9563    481.60435    406.87161    10483.553   -2499.9563 
WARNING: Building an occasional neighobr list when atoms may have moved too far (../neighbor.cpp:1401)
WARNING: Building an occasional neighobr list when atoms may have moved too far (../neighbor.cpp:1401)
   11500    297.56431   -79.384203    7825.4141   -2514.0679    453.24816    428.78373    10450.683   -2514.0679 
WARNING: Building an occasional neighobr list when atoms may have moved too far (../neighbor.cpp:1401)
WARNING: Building an occasional neighobr list when atoms may have moved too far (../neighbor.cpp:1401)
WARNING: Building an occasional neighobr list when atoms may have moved too far (../neighbor.cpp:1401)
WARNING: Building an occasional neighobr list when atoms may have moved too far (../neighbor.cpp:1401)
WARNING: Building an occasional neighobr list when atoms may have moved too far (../neighbor.cpp:1401)
   11750     299.0325   -470.51064    7702.4872   -2523.7464    455.48448    400.09876    10467.813   -2523.7464 
WARNING: Building an occasional neighobr list when atoms may have moved too far (../neighbor.cpp:1401)
WARNING: Building an occasional neighobr list when atoms may have moved too far (../neighbor.cpp:1401)
   12000    294.70432    124.47188    7852.8388    -2519.724    448.89183    432.05398     10440.06    -2519.724 
WARNING: Building an occasional neighobr list when atoms may have moved too far (../neighbor.cpp:1401)
WARNING: Building an occasional neighobr list when atoms may have moved too far (../neighbor.cpp:1401)
   12250    305.25667    735.52503    7747.8245   -2525.7378    464.96511    448.63096    10414.929   -2525.7378 
   12500    305.66798   -7.4823095    8003.4851   -2508.8963    465.59162     425.3015    10457.737   -2508.8963 
WARNING: Building an occasional neighobr list when atoms may have moved too far (../neighbor.cpp:1401)
WARNING: Building an occasional neighobr list when atoms may have moved too far (../neighbor.cpp:1401)
   12750    303.54943   -278.82646    7974.2044   -2520.7582    462.36465    421.46882    10449.981   -2520.7582 
WARNING: Building an occasional neighobr list when atoms may have moved too far (../neighbor.cpp:1401)
   13000    308.98864    62.901686     7955.154   -2525.8148    470.64963     438.8912    10428.059   -2525.8148 
WARNING: Building an occasional neighobr list when atoms may have moved too far (../neighbor.cpp:1401)
   13250    307.61295   -530.74748    8057.5879    -2515.454    468.55418    415.83145    10458.878    -2515.454 
WARNING: Building an occasional neighobr list when atoms may have moved too far (../neighbor.cpp:1401)
WARNING: Building an occasional neighobr list when atoms may have moved too far (../neighbor.cpp:1401)
WARNING: Building an occasional neighobr list when atoms may have moved too far (../neighbor.cpp:1401)
   13500    308.61496     499.3197    7894.0115   -2550.5648    470.08044    452.84561    10390.639   -2550.5648 
WARNING: Building an occasional neighobr list when atoms may have moved too far (../neighbor.cpp:1401)
WARNING: Building an occasional neighobr list when atoms may have moved too far (../neighbor.cpp:1401)
WARNING: Building an occasional neighobr list when atoms may have moved too far (../neighbor.cpp:1401)
WARNING: Building an occasional neighobr list when atoms may have moved too far (../neighbor.cpp:1401)
   13750    292.45075   -301.09931    7803.7765   -2524.9718     445.4592    407.93251    10461.592   -2524.9718 
WARNING: Building an occasional neighobr list when atoms may have moved too far (../neighbor.cpp:1401)
WARNING: Building an occasional neighobr list when atoms may have moved too far (../neighbor.cpp:1401)
WARNING: Building an occasional neighobr list when atoms may have moved too far (../neighbor.cpp:1401)
WARNING: Building an occasional neighobr list when atoms may have moved too far (../neighbor.cpp:1401)
   14000    294.53578   -438.96388    7925.6488   -2486.3592    448.63511    402.11643    10503.573   -2486.3592 
WARNING: Building an occasional neighobr list when atoms may have moved too far (../neighbor.cpp:1401)
WARNING: Building an occasional neighobr list when atoms may have moved too far (../neighbor.cpp:1401)
   14250    313.29315     304.2106    7754.7478   -2514.5745    477.20623    426.44066    10451.548   -2514.5745 
WARNING: Building an occasional neighobr list when atoms may have moved too far (../neighbor.cpp:1401)
   14500    289.02913    269.29793    7830.0375   -2540.7865    440.24741    450.29441    10400.538   -2540.7865 
   14750    300.92144   -1837.3845    8053.3919   -2521.0182    458.36172    375.01107    10497.401   -2521.0182 
WARNING: Building an occasional neighobr list when atoms may have moved too far (../neighbor.cpp:1401)
WARNING: Building an occasional neighobr list when atoms may have moved too far (../neighbor.cpp:1401)
WARNING: Building an occasional neighobr list when atoms may have moved too far (../neighbor.cpp:1401)
WARNING: Building an occasional neighobr list when atoms may have moved too far (../neighbor.cpp:1401)
WARNING: Building an occasional neighobr list when atoms may have moved too far (../neighbor.cpp:1401)
   15000    307.10782    497.17534    7879.6429   -2509.3694    467.78476    440.84223    10442.798   -2509.3694 
WARNING: Building an occasional neighobr list when atoms may have moved too far (../neighbor.cpp:1401)
WARNING: Building an occasional neighobr list when atoms may have moved too far (../neighbor.cpp:1401)
WARNING: Building an occasional neighobr list when atoms may have moved too far (../neighbor.cpp:1401)
   15250      284.553    684.62173    7902.8865   -2518.0983    433.42941    461.38973    10413.019   -2518.0983 
WARNING: Building an occasional neighobr list when atoms may have moved too far (../neighbor.cpp:1401)
WARNING: Building an occasional neighobr list when atoms may have moved too far (../neighbor.cpp:1401)
   15500    295.92432    478.66977    7960.0422   -2523.3037    450.75012    455.10057    10413.704   -2523.3037 
   15750    299.96532   -248.72642    7886.9046   -2545.0771    456.90535    433.74076    10412.962   -2545.0771 
   16000    289.98165    168.50092    8286.5623   -2475.9443    441.69829    446.28774    10467.832   -2475.9443 
WARNING: Building an occasional neighobr list when atoms may have moved too far (../neighbor.cpp:1401)
   16250      300.153   -133.34137    8012.3877   -2492.8487    457.19122    417.64471    10481.784   -2492.8487 
WARNING: Building an occasional neighobr list when atoms may have moved too far (../neighbor.cpp:1401)
WARNING: Building an occasional neighobr list when atoms may have moved too far (../neighbor.cpp:1401)
   16500    306.63349    7.5028135    7955.8962   -2498.5533    467.06228    417.58983    10477.946   -2498.5533 
WARNING: Building an occasional neighobr list when atoms may have moved too far (../neighbor.cpp:1401)
WARNING: Building an occasional neighobr list when atoms may have moved too far (../neighbor.cpp:1401)
WARNING: Building an occasional neighobr list when atoms may have moved too far (../neighbor.cpp:1401)
WARNING: Building an occasional neighobr list when atoms may have moved too far (../neighbor.cpp:1401)
   16750    309.66379    849.15723    8027.7409    -2541.802    471.67801    474.39677    10375.426    -2541.802 
WARNING: Building an occasional neighobr list when atoms may have moved too far (../neighbor.cpp:1401)
   17000    305.07161   -148.96942    8130.9933   -2490.2755    464.68323     422.4322    10481.268   -2490.2755 
   17250    297.80233   -73.766899    7892.5549   -2521.4192    453.61071    423.26147    10446.124   -2521.4192 
   17500    290.10302   -472.80449    8020.5348   -2553.3518    441.88316    432.42552    10407.001   -2553.3518 
WARNING: Building an occasional neighobr list when atoms may have moved too far (../neighbor.cpp:1401)
   17750    290.26445   -87.879113    7905.4816   -2519.1337    442.12906    424.23433     10448.24   -2519.1337 
WARNING: Building an occasional neighobr list when atoms may have moved too far (../neighbor.cpp:1401)
WARNING: Building an occasional neighobr list when atoms may have moved too far (../neighbor.cpp:1401)
WARNING: Building an occasional neighobr list when atoms may have moved too far (../neighbor.cpp:1401)
WARNING: Building an occasional neighobr list when atoms may have moved too far (../neighbor.cpp:1401)
WARNING: Building an occasional neighobr list when atoms may have moved too far (../neighbor.cpp:1401)
   18000    312.04362    108.11534    7935.7241   -2537.4821    475.30295    436.02825    10420.061   -2537.4821 
WARNING: Building an occasional neighobr list when atoms may have moved too far (../neighbor.cpp:1401)
WARNING: Building an occasional neighobr list when atoms may have moved too far (../neighbor.cpp:1401)
   18250    292.52746    291.89363    7875.2277   -2507.9319    445.57606    437.65279     10447.65   -2507.9319 
WARNING: Building an occasional neighobr list when atoms may have moved too far (../neighbor.cpp:1401)
WARNING: Building an occasional neighobr list when atoms may have moved too far (../neighbor.cpp:1401)
WARNING: Building an occasional neighobr list when atoms may have moved too far (../neighbor.cpp:1401)
   18500    279.07645    31.454322    7986.7055   -2540.2411    425.08756    444.63603    10406.488   -2540.2411 
WARNING: Building an occasional neighobr list when atoms may have moved too far (../neighbor.cpp:1401)
WARNING: Building an occasional neighobr list when atoms may have moved too far (../neighbor.cpp:1401)
WARNING: Building an occasional neighobr list when atoms may have moved too far (../neighbor.cpp:1401)
   18750    310.18115   -374.39046    7949.2841   -2508.8404    472.46604    414.57725    10470.668   -2508.8404 
WARNING: Building an occasional neighobr list when atoms may have moved too far (../neighbor.cpp:1401)
WARNING: Building an occasional neighobr list when atoms may have moved too far (../neighbor.cpp:1401)
WARNING: Building an occasional neighobr list when atoms may have moved too far (../neighbor.cpp:1401)
WARNING: Building an occasional neighobr list when atoms may have moved too far (../neighbor.cpp:1401)
WARNING: Building an occasional neighobr list when atoms may have moved too far (../neighbor.cpp:1401)
WARNING: Building an occasional neighobr list when atoms may have moved too far (../neighbor.cpp:1401)
   19000    292.56534    346.63353    7789.8535   -2561.5786    445.63375    458.52848    10373.927   -2561.5786 
WARNING: Building an occasional neighobr list when atoms may have moved too far (../neighbor.cpp:1401)
WARNING: Building an occasional neighobr list when atoms may have moved too far (../neighbor.cpp:1401)
WARNING: Building an occasional neighobr list when atoms may have moved too far (../neighbor.cpp:1401)
WARNING: Building an occasional neighobr list when atoms may have moved too far (../neighbor.cpp:1401)
   19250     299.2324   -856.66373    7941.3136   -2530.8117    455.78897    408.39998    10454.569   -2530.8117 
WARNING: Building an occasional neighobr list when atoms may have moved too far (../neighbor.cpp:1401)
WARNING: Building an occasional neighobr list when atoms may have moved too far (../neighbor.cpp:1401)
   19500    295.94236    209.24278    7877.4144   -2531.1502    450.77761    443.74126    10421.163   -2531.1502 
WARNING: Building an occasional neighobr list when atoms may have moved too far (../neighbor.cpp:1401)
WARNING: Building an occasional neighobr list when atoms may have moved too far (../neighbor.cpp:1401)
WARNING: Building an occasional neighobr list when atoms may have moved too far (../neighbor.cpp:1401)
WARNING: Building an occasional neighobr list when atoms may have moved too far (../neighbor.cpp:1401)
WARNING: Building an occasional neighobr list when atoms may have moved too far (../neighbor.cpp:1401)
   19750    285.95886    -27.74139    8143.8378   -2522.1839    435.57081      445.846    10425.819   -2522.1839 
WARNING: Building an occasional neighobr list when atoms may have moved too far (../neighbor.cpp:1401)
   20000    293.44904   -206.16102     7740.227   -2525.8055     446.9798    416.02084    10450.438   -2525.8055 
   20250    285.38138    353.08105     7771.677   -2542.3909    434.69119    446.62791     10404.43   -2542.3909 
WARNING: Building an occasional neighobr list when atoms may have moved too far (../neighbor.cpp:1401)
WARNING: Building an occasional neighobr list when atoms may have moved too far (../neighbor.cpp:1401)
WARNING: Building an occasional neighobr list when atoms may have moved too far (../neighbor.cpp:1401)
WARNING: Building an occasional neighobr list when atoms may have moved too far (../neighbor.cpp:1401)
   20500    307.09417   -784.19028    7926.6822   -2584.6809    467.76397    427.43116    10379.168   -2584.6809 
WARNING: Building an occasional neighobr list when atoms may have moved too far (../neighbor.cpp:1401)
WARNING: Building an occasional neighobr list when atoms may have moved too far (../neighbor.cpp:1401)
WARNING: Building an occasional neighobr list when atoms may have moved too far (../neighbor.cpp:1401)
   20750      314.086    760.77152    7625.6199   -2562.1862    478.41389    452.20143    10379.827   -2562.1862 
WARNING: Building an occasional neighobr list when atoms may have moved too far (../neighbor.cpp:1401)
WARNING: Building an occasional neighobr list when atoms may have moved too far (../neighbor.cpp:1401)
WARNING: Building an occasional neighobr list when atoms may have moved too far (../neighbor.cpp:1401)
   21000    306.54963   -934.40009    7786.6134   -2539.4879    466.93453    393.16733    10461.074   -2539.4879 
WARNING: Building an occasional neighobr list when atoms may have moved too far (../neighbor.cpp:1401)
WARNING: Building an occasional neighobr list when atoms may have moved too far (../neighbor.cpp:1401)
WARNING: Building an occasional neighobr list when atoms may have moved too far (../neighbor.cpp:1401)
WARNING: Building an occasional neighobr list when atoms may have moved too far (../neighbor.cpp:1401)
   21250    343.44992    57.367636    7899.2706   -2541.6321    523.14083    436.79069    10412.385   -2541.6321 
WARNING: Building an occasional neighobr list when atoms may have moved too far (../neighbor.cpp:1401)
WARNING: Building an occasional neighobr list when atoms may have moved too far (../neighbor.cpp:1401)
WARNING: Building an occasional neighobr list when atoms may have moved too far (../neighbor.cpp:1401)
   21500    289.08274   -328.64932    7961.6505    -2552.868    440.32908    435.70036    10404.322    -2552.868 
WARNING: Building an occasional neighobr list when atoms may have moved too far (../neighbor.cpp:1401)
WARNING: Building an occasional neighobr list when atoms may have moved too far (../neighbor.cpp:1401)
WARNING: Building an occasional neighobr list when atoms may have moved too far (../neighbor.cpp:1401)
WARNING: Building an occasional neighobr list when atoms may have moved too far (../neighbor.cpp:1401)
WARNING: Building an occasional neighobr list when atoms may have moved too far (../neighbor.cpp:1401)
WARNING: Building an occasional neighobr list when atoms may have moved too far (../neighbor.cpp:1401)
WARNING: Building an occasional neighobr list when atoms may have moved too far (../neighbor.cpp:1401)
   21750    284.34719     36.75502    7725.2957   -2524.9223    433.11592    429.17519    10435.356   -2524.9223 
WARNING: Building an occasional neighobr list when atoms may have moved too far (../neighbor.cpp:1401)
WARNING: Building an occasional neighobr list when atoms may have moved too far (../neighbor.cpp:1401)
WARNING: Building an occasional neighobr list when atoms may have moved too far (../neighbor.cpp:1401)
   22000    296.97248    630.54103    7765.7605   -2542.9479    452.34668    449.86747     10401.05   -2542.9479 
WARNING: Building an occasional neighobr list when atoms may have moved too far (../neighbor.cpp:1401)
WARNING: Building an occasional neighobr list when atoms may have moved too far (../neighbor.cpp:1401)
   22250     308.9802    64.098047    8079.2661   -2527.2959    470.63676    446.58347    10418.176   -2527.2959 
WARNING: Building an occasional neighobr list when atoms may have moved too far (../neighbor.cpp:1401)
WARNING: Building an occasional neighobr list when atoms may have moved too far (../neighbor.cpp:1401)
WARNING: Building an occasional neighobr list when atoms may have moved too far (../neighbor.cpp:1401)
WARNING: Building an occasional neighobr list when atoms may have moved too far (../neighbor.cpp:1401)
WARNING: Building an occasional neighobr list when atoms may have moved too far (../neighbor.cpp:1401)
WARNING: Building an occasional neighobr list when atoms may have moved too far (../neighbor.cpp:1401)
   22500    293.87115   -507.65672      7877.89   -2591.2085    447.62276    440.73819    10360.128   -2591.2085 
WARNING: Building an occasional neighobr list when atoms may have moved too far (../neighbor.cpp:1401)
WARNING: Building an occasional neighobr list when atoms may have moved too far (../neighbor.cpp:1401)
WARNING: Building an occasional neighobr list when atoms may have moved too far (../neighbor.cpp:1401)
WARNING: Building an occasional neighobr list when atoms may have moved too far (../neighbor.cpp:1401)
WARNING: Building an occasional neighobr list when atoms may have moved too far (../neighbor.cpp:1401)
   22750    307.49117    174.65837    7818.0882   -2500.7215    468.36869    422.03506    10469.673   -2500.7215 
WARNING: Building an occasional neighobr list when atoms may have moved too far (../neighbor.cpp:1401)
WARNING: Building an occasional neighobr list when atoms may have moved too far (../neighbor.cpp:1401)
WARNING: Building an occasional neighobr list when atoms may have moved too far (../neighbor.cpp:1401)
   23000    302.05687   -1266.0789     7864.222   -2522.2291    460.09119    382.99617    10487.113   -2522.2291 
WARNING: Building an occasional neighobr list when atoms may have moved too far (../neighbor.cpp:1401)
WARNING: Building an occasional neighobr list when atoms may have moved too far (../neighbor.cpp:1401)
WARNING: Building an occasional neighobr list when atoms may have moved too far (../neighbor.cpp:1401)
WARNING: Building an occasional neighobr list when atoms may have moved too far (../neighbor.cpp:1401)
WARNING: Building an occasional neighobr list when atoms may have moved too far (../neighbor.cpp:1401)
   23250    305.11835   -822.87847    7962.7001   -2519.2796    464.75441    404.86913    10468.943   -2519.2796 
WARNING: Building an occasional neighobr list when atoms may have moved too far (../neighbor.cpp:1401)
WARNING: Building an occasional neighobr list when atoms may have moved too far (../neighbor.cpp:1401)
WARNING: Building an occasional neighobr list when atoms may have moved too far (../neighbor.cpp:1401)
   23500    282.03831    368.60755    7731.8548   -2519.4536    429.59904    435.74064    10438.657   -2519.4536 
WARNING: Building an occasional neighobr list when atoms may have moved too far (../neighbor.cpp:1401)
WARNING: Building an occasional neighobr list when atoms may have moved too far (../neighbor.cpp:1401)
   23750    301.81765   -637.90953    7949.3715   -2524.4199    459.72681    412.11422    10453.285   -2524.4199 
WARNING: Building an occasional neighobr list when atoms may have moved too far (../neighbor.cpp:1401)
WARNING: Building an occasional neighobr list when atoms may have moved too far (../neighbor.cpp:1401)
WARNING: Building an occasional neighobr list when atoms may have moved too far (../neighbor.cpp:1401)
   24000    299.36863     851.5749    7989.6857   -2487.2205    455.99647    455.34739    10449.778   -2487.2205 
WARNING: Building an occasional neighobr list when atoms may have moved too far (../neighbor.cpp:1401)
   24250    310.95397     390.7426    7860.3143   -2556.7083     473.6432    461.17815     10374.01   -2556.7083 
WARNING: Building an occasional neighobr list when atoms may have moved too far (../neighbor.cpp:1401)
WARNING: Building an occasional neighobr list when atoms may have moved too far (../neighbor.cpp:1401)
WARNING: Building an occasional neighobr list when atoms may have moved too far (../neighbor.cpp:1401)
WARNING: Building an occasional neighobr list when atoms may have moved too far (../neighbor.cpp:1401)
WARNING: Building an occasional neighobr list when atoms may have moved too far (../neighbor.cpp:1401)
   24500    295.84249    254.45381    7899.6319   -2501.1493    450.62549    431.03699    10459.918   -2501.1493 
WARNING: Building an occasional neighobr list when atoms may have moved too far (../neighbor.cpp:1401)
WARNING: Building an occasional neighobr list when atoms may have moved too far (../neighbor.cpp:1401)
WARNING: Building an occasional neighobr list when atoms may have moved too far (../neighbor.cpp:1401)
WARNING: Building an occasional neighobr list when atoms may have moved too far (../neighbor.cpp:1401)
   24750    287.75685   -1246.6134     7869.258   -2554.8203    438.30948    397.45959    10438.518   -2554.8203 
WARNING: Building an occasional neighobr list when atoms may have moved too far (../neighbor.cpp:1401)
WARNING: Building an occasional neighobr list when atoms may have moved too far (../neighbor.cpp:1401)
   25000    311.14731    490.59688    8051.7768     -2528.34     473.9377     461.7365    10403.619     -2528.34 
WARNING: Building an occasional neighobr list when atoms may have moved too far (../neighbor.cpp:1401)
WARNING: Building an occasional neighobr list when atoms may have moved too far (../neighbor.cpp:1401)
   25250    283.33492    136.40513    8002.3933   -2507.9675    431.57404    435.58955    10448.595   -2507.9675 
   25500    302.92595   -280.71772      7998.66   -2570.3532    461.41497    449.32765    10371.923   -2570.3532 
WARNING: Building an occasional neighobr list when atoms may have moved too far (../neighbor.cpp:1401)
WARNING: Building an occasional neighobr list when atoms may have moved too far (../neighbor.cpp:1401)
WARNING: Building an occasional neighobr list when atoms may have moved too far (../neighbor.cpp:1401)
   25750    285.99253    887.81528     7911.481   -2523.3728    435.62209    464.35779    10404.931   -2523.3728 
WARNING: Building an occasional neighobr list when atoms may have moved too far (../neighbor.cpp:1401)
   26000    309.14408   -169.78632     7995.692   -2549.9292    470.88639    434.90132    10407.598   -2549.9292 
WARNING: Building an occasional neighobr list when atoms may have moved too far (../neighbor.cpp:1401)
WARNING: Building an occasional neighobr list when atoms may have moved too far (../neighbor.cpp:1401)
   26250    300.63517      993.287    7824.4868   -2534.7996    457.92567    467.15159    10388.447   -2534.7996 
WARNING: Building an occasional neighobr list when atoms may have moved too far (../neighbor.cpp:1401)
   26500    305.26181     89.27975    7915.2057   -2519.1055    464.97294    432.52787    10441.783   -2519.1055 
   26750    303.41026    -471.8327    7845.2671    -2573.989    462.15267    428.02586    10390.625    -2573.989 
WARNING: Building an occasional neighobr list when atoms may have moved too far (../neighbor.cpp:1401)
WARNING: Building an occasional neighobr list when atoms may have moved too far (../neighbor.cpp:1401)
WARNING: Building an occasional neighobr list when atoms may have moved too far (../neighbor.cpp:1401)
WARNING: Building an occasional neighobr list when atoms may have moved too far (../neighbor.cpp:1401)
   27000    313.75138   -939.27734     7892.829   -2529.6335     477.9042    394.69994    10469.096   -2529.6335 
   27250    299.49975   -296.10134    7904.9795   -2517.8235     456.1962    413.76045    10463.221   -2517.8235 
   27500    300.87195    705.91119      8003.36   -2536.7909    458.28633    473.75549    10383.216   -2536.7909 
WARNING: Building an occasional neighobr list when atoms may have moved too far (../neighbor.cpp:1401)
WARNING: Building an occasional neighobr list when atoms may have moved too far (../neighbor.cpp:1401)
WARNING: Building an occasional neighobr list when atoms may have moved too far (../neighbor.cpp:1401)
WARNING: Building an occasional neighobr list when atoms may have moved too far (../neighbor.cpp:1401)
WARNING: Building an occasional neighobr list when atoms may have moved too far (../neighbor.cpp:1401)
WARNING: Building an occasional neighobr list when atoms may have moved too far (../neighbor.cpp:1401)
   27750    312.38017   -298.52571    8070.9894   -2587.7793    475.81558    450.29599    10355.294   -2587.7793 
WARNING: Building an occasional neighobr list when atoms may have moved too far (../neighbor.cpp:1401)
WARNING: Building an occasional neighobr list when atoms may have moved too far (../neighbor.cpp:1401)
WARNING: Building an occasional neighobr list when atoms may have moved too far (../neighbor.cpp:1401)
   28000    308.81407    534.44166    7812.1819   -2542.4059    470.38372    446.05926    10406.614   -2542.4059 
WARNING: Building an occasional neighobr list when atoms may have moved too far (../neighbor.cpp:1401)
WARNING: Building an occasional neighobr list when atoms may have moved too far (../neighbor.cpp:1401)
WARNING: Building an occasional neighobr list when atoms may have moved too far (../neighbor.cpp:1401)
   28250    314.80336   -880.57986    8155.9255   -2506.7517    479.50656    409.73507    10475.307   -2506.7517 
WARNING: Building an occasional neighobr list when atoms may have moved too far (../neighbor.cpp:1401)
   28500    309.43052   -434.93698     7982.654   -2502.2036    471.32268    407.36674     10484.46   -2502.2036 
   28750      301.469   -148.64227    7783.2948   -2606.2978    459.19575    455.45349     10332.14   -2606.2978 
WARNING: Building an occasional neighobr list when atoms may have moved too far (../neighbor.cpp:1401)
WARNING: Building an occasional neighobr list when atoms may have moved too far (../neighbor.cpp:1401)
WARNING: Building an occasional neighobr list when atoms may have moved too far (../neighbor.cpp:1401)
   29000    286.87113    836.08765    7812.7764   -2540.1956    436.96036     470.0557    10383.835   -2540.1956 
WARNING: Building an occasional neighobr list when atoms may have moved too far (../neighbor.cpp:1401)
   29250    299.55512    159.81071    7875.5419   -2562.1215    456.28055    448.08503    10383.488   -2562.1215 
WARNING: Building an occasional neighobr list when atoms may have moved too far (../neighbor.cpp:1401)
WARNING: Building an occasional neighobr list when atoms may have moved too far (../neighbor.cpp:1401)
   29500    299.69328    -727.4353    8087.0736   -2535.3197    456.49099    415.76948    10440.739   -2535.3197 
WARNING: Building an occasional neighobr list when atoms may have moved too far (../neighbor.cpp:1401)
   29750    304.84499    164.69038    7805.4386   -2510.2255    464.33804    424.59518     10459.46   -2510.2255 
WARNING: Building an occasional neighobr list when atoms may have moved too far (../neighbor.cpp:1401)
WARNING: Building an occasional neighobr list when atoms may have moved too far (../neighbor.cpp:1401)
WARNING: Building an occasional neighobr list when atoms may have moved too far (../neighbor.cpp:1401)
   30000    298.21742    907.10041    7859.5834   -2504.5387    454.24297    454.48539    10430.216   -2504.5387 
WARNING: Building an occasional neighobr list when atoms may have moved too far (../neighbor.cpp:1401)
   30250     286.2126    -872.3615    8082.5351   -2517.3008    435.95729    407.86853    10469.665   -2517.3008 
   30500    293.70555     702.1275    8103.9299   -2513.7202    447.37052    465.73742    10412.823   -2513.7202 
WARNING: Building an occasional neighobr list when atoms may have moved too far (../neighbor.cpp:1401)
   30750    305.98982   -181.37471    7684.4694   -2527.9688    466.08184    410.30372     10453.39   -2527.9688 
WARNING: Building an occasional neighobr list when atoms may have moved too far (../neighbor.cpp:1401)
WARNING: Building an occasional neighobr list when atoms may have moved too far (../neighbor.cpp:1401)
   31000    309.79153    118.65134     7878.725   -2523.9483    471.87259    435.83389    10434.222   -2523.9483 
WARNING: Building an occasional neighobr list when atoms may have moved too far (../neighbor.cpp:1401)
WARNING: Building an occasional neighobr list when atoms may have moved too far (../neighbor.cpp:1401)
   31250    290.01029   -99.627382     7647.079   -2550.9066    441.74191    430.14743    10412.645   -2550.9066 
WARNING: Building an occasional neighobr list when atoms may have moved too far (../neighbor.cpp:1401)
WARNING: Building an occasional neighobr list when atoms may have moved too far (../neighbor.cpp:1401)
WARNING: Building an occasional neighobr list when atoms may have moved too far (../neighbor.cpp:1401)
   31500    293.85634    606.13947    7832.2736   -2492.2306    447.60019    442.52598    10459.572   -2492.2306 
   31750    278.08866   -514.77467    7747.4207   -2550.3148    423.58296    421.65995    10423.052   -2550.3148 
WARNING: Building an occasional neighobr list when atoms may have moved too far (../neighbor.cpp:1401)
WARNING: Building an occasional neighobr list when atoms may have moved too far (../neighbor.cpp:1401)
WARNING: Building an occasional neighobr list when atoms may have moved too far (../neighbor.cpp:1401)
WARNING: Building an occasional neighobr list when atoms may have moved too far (../neighbor.cpp:1401)
WARNING: Building an occasional neighobr list when atoms may have moved too far (../neighbor.cpp:1401)
WARNING: Building an occasional neighobr list when atoms may have moved too far (../neighbor.cpp:1401)
WARNING: Building an occasional neighobr list when atoms may have moved too far (../neighbor.cpp:1401)
WARNING: Building an occasional neighobr list when atoms may have moved too far (../neighbor.cpp:1401)
   32000    287.21614   -690.03184    7876.4075   -2521.1154    437.48589    406.78867    10465.427   -2521.1154 
WARNING: Building an occasional neighobr list when atoms may have moved too far (../neighbor.cpp:1401)
WARNING: Building an occasional neighobr list when atoms may have moved too far (../neighbor.cpp:1401)
WARNING: Building an occasional neighobr list when atoms may have moved too far (../neighbor.cpp:1401)
   32250    299.15109    246.22208    7841.4857   -2497.8103    455.66513     430.8167    10462.258   -2497.8103 
WARNING: Building an occasional neighobr list when atoms may have moved too far (../neighbor.cpp:1401)
WARNING: Building an occasional neighobr list when atoms may have moved too far (../neighbor.cpp:1401)
WARNING: Building an occasional neighobr list when atoms may have moved too far (../neighbor.cpp:1401)
WARNING: Building an occasional neighobr list when atoms may have moved too far (../neighbor.cpp:1401)
WARNING: Building an occasional neighobr list when atoms may have moved too far (../neighbor.cpp:1401)
WARNING: Building an occasional neighobr list when atoms may have moved too far (../neighbor.cpp:1401)
   32500    302.05618    493.93024    7787.3875   -2527.1369    460.09014    434.90626    10430.598   -2527.1369 
WARNING: Building an occasional neighobr list when atoms may have moved too far (../neighbor.cpp:1401)
WARNING: Building an occasional neighobr list when atoms may have moved too far (../neighbor.cpp:1401)
   32750    288.15255   -375.13332    7996.5004   -2531.7312    438.91222    426.43759     10434.45   -2531.7312 
WARNING: Building an occasional neighobr list when atoms may have moved too far (../neighbor.cpp:1401)
WARNING: Building an occasional neighobr list when atoms may have moved too far (../neighbor.cpp:1401)
   33000    281.68741    968.28551    7945.6248   -2487.9544    429.06456    461.70005    10443.159   -2487.9544 
WARNING: Building an occasional neighobr list when atoms may have moved too far (../neighbor.cpp:1401)
WARNING: Building an occasional neighobr list when atoms may have moved too far (../neighbor.cpp:1401)
WARNING: Building an occasional neighobr list when atoms may have moved too far (../neighbor.cpp:1401)
WARNING: Building an occasional neighobr list when atoms may have moved too far (../neighbor.cpp:1401)
WARNING: Building an occasional neighobr list when atoms may have moved too far (../neighbor.cpp:1401)
WARNING: Building an occasional neighobr list when atoms may have moved too far (../neighbor.cpp:1401)
   33250    306.06841    502.65304    8027.7201   -2509.1146    466.20154    455.38058    10427.569   -2509.1146 
WARNING: Building an occasional neighobr list when atoms may have moved too far (../neighbor.cpp:1401)
   33500    296.02233    -130.6524    8181.1268   -2524.6345    450.89942    447.81471    10420.391   -2524.6345 
WARNING: Building an occasional neighobr list when atoms may have moved too far (../neighbor.cpp:1401)
WARNING: Building an occasional neighobr list when atoms may have moved too far (../neighbor.cpp:1401)
WARNING: Building an occasional neighobr list when atoms may have moved too far (../neighbor.cpp:1401)
WARNING: Building an occasional neighobr list when atoms may have moved too far (../neighbor.cpp:1401)
   33750     297.0293   -22.986333    7792.4563   -2552.6362    452.43323    436.80805     10403.02   -2552.6362 
   34000    301.06158   -630.89929    7980.9945   -2515.9558    458.57517    408.97859     10468.11   -2515.9558 
WARNING: Building an occasional neighobr list when atoms may have moved too far (../neighbor.cpp:1401)
   34250    307.52429    293.05062    8013.9595    -2486.565    468.41913    437.31538    10470.272    -2486.565 
WARNING: Building an occasional neighobr list when atoms may have moved too far (../neighbor.cpp:1401)
WARNING: Building an occasional neighobr list when atoms may have moved too far (../neighbor.cpp:1401)
WARNING: Building an occasional neighobr list when atoms may have moved too far (../neighbor.cpp:1401)
   34500    286.65512   -147.83593    7883.6098   -2553.7935    436.63134    444.47085    10395.385   -2553.7935 
WARNING: Building an occasional neighobr list when atoms may have moved too far (../neighbor.cpp:1401)
WARNING: Building an occasional neighobr list when atoms may have moved too far (../neighbor.cpp:1401)
   34750    304.20904     772.3561    7960.9091   -2526.7501    463.36936    467.72376    10399.217   -2526.7501 
WARNING: Building an occasional neighobr list when atoms may have moved too far (../neighbor.cpp:1401)
WARNING: Building an occasional neighobr list when atoms may have moved too far (../neighbor.cpp:1401)
WARNING: Building an occasional neighobr list when atoms may have moved too far (../neighbor.cpp:1401)
WARNING: Building an occasional neighobr list when atoms may have moved too far (../neighbor.cpp:1401)
   35000    304.84847   -454.08092    8271.4473   -2503.8794    464.34334    433.62261    10454.213   -2503.8794 
WARNING: Building an occasional neighobr list when atoms may have moved too far (../neighbor.cpp:1401)
WARNING: Building an occasional neighobr list when atoms may have moved too far (../neighbor.cpp:1401)
   35250      313.888   -1379.6959    8003.8656   -2523.3239    478.11229    381.27386    10490.244   -2523.3239 
WARNING: Building an occasional neighobr list when atoms may have moved too far (../neighbor.cpp:1401)
WARNING: Building an occasional neighobr list when atoms may have moved too far (../neighbor.cpp:1401)
WARNING: Building an occasional neighobr list when atoms may have moved too far (../neighbor.cpp:1401)
WARNING: Building an occasional neighobr list when atoms may have moved too far (../neighbor.cpp:1401)
   35500    297.24302    115.41144    7903.4724   -2537.3674    452.75876    435.34301    10420.445   -2537.3674 
WARNING: Building an occasional neighobr list when atoms may have moved too far (../neighbor.cpp:1401)
   35750    315.04273    881.74679    7769.6857   -2540.6771    479.87117    462.56074    10389.878   -2540.6771 
WARNING: Building an occasional neighobr list when atoms may have moved too far (../neighbor.cpp:1401)
WARNING: Building an occasional neighobr list when atoms may have moved too far (../neighbor.cpp:1401)
WARNING: Building an occasional neighobr list when atoms may have moved too far (../neighbor.cpp:1401)
WARNING: Building an occasional neighobr list when atoms may have moved too far (../neighbor.cpp:1401)
WARNING: Building an occasional neighobr list when atoms may have moved too far (../neighbor.cpp:1401)
   36000    294.09718   -155.87906    7916.6508   -2514.2645    447.96705    422.65108    10455.966   -2514.2645 
WARNING: Building an occasional neighobr list when atoms may have moved too far (../neighbor.cpp:1401)
WARNING: Building an occasional neighobr list when atoms may have moved too far (../neighbor.cpp:1401)
WARNING: Building an occasional neighobr list when atoms may have moved too far (../neighbor.cpp:1401)
WARNING: Building an occasional neighobr list when atoms may have moved too far (../neighbor.cpp:1401)
WARNING: Building an occasional neighobr list when atoms may have moved too far (../neighbor.cpp:1401)
WARNING: Building an occasional neighobr list when atoms may have moved too far (../neighbor.cpp:1401)
WARNING: Building an occasional neighobr list when atoms may have moved too far (../neighbor.cpp:1401)
   36250    301.68925   -2017.3605    7991.1373   -2521.5495    459.53124    360.50588    10511.416   -2521.5495 
   36500    302.35323   -721.24479    7749.0106   -2589.6965    460.54261    425.48136    10379.006   -2589.6965 
WARNING: Building an occasional neighobr list when atoms may have moved too far (../neighbor.cpp:1401)
WARNING: Building an occasional neighobr list when atoms may have moved too far (../neighbor.cpp:1401)
   36750    311.30245   -817.82948    8037.3642   -2489.9132    474.17401    394.94216    10506.687   -2489.9132 
WARNING: Building an occasional neighobr list when atoms may have moved too far (../neighbor.cpp:1401)
   37000    294.60268   -395.46149    8039.6659   -2523.2323    448.73702    429.08645    10441.589   -2523.2323 
WARNING: Building an occasional neighobr list when atoms may have moved too far (../neighbor.cpp:1401)
WARNING: Building an occasional neighobr list when atoms may have moved too far (../neighbor.cpp:1401)
WARNING: Building an occasional neighobr list when atoms may have moved too far (../neighbor.cpp:1401)
   37250    311.14578   -846.11005    7944.8678   -2506.8304    473.93536     392.0968    10494.145   -2506.8304 
WARNING: Building an occasional neighobr list when atoms may have moved too far (../neighbor.cpp:1401)
WARNING: Building an occasional neighobr list when atoms may have moved too far (../neighbor.cpp:1401)
WARNING: Building an occasional neighobr list when atoms may have moved too far (../neighbor.cpp:1401)
WARNING: Building an occasional neighobr list when atoms may have moved too far (../neighbor.cpp:1401)
WARNING: Building an occasional neighobr list when atoms may have moved too far (../neighbor.cpp:1401)
WARNING: Building an occasional neighobr list when atoms may have moved too far (../neighbor.cpp:1401)
   37500    324.07161    337.05115    7808.3499   -2553.6514    493.62391    451.37302    10389.155   -2553.6514 
WARNING: Building an occasional neighobr list when atoms may have moved too far (../neighbor.cpp:1401)
   37750     331.1385    551.84222     7882.276   -2524.5891    504.38816    449.21012    10418.733   -2524.5891 
   38000    300.65451    718.77846     7802.969   -2514.7491    457.95513    447.21868    10431.848   -2514.7491 
WARNING: Building an occasional neighobr list when atoms may have moved too far (../neighbor.cpp:1401)
WARNING: Building an occasional neighobr list when atoms may have moved too far (../neighbor.cpp:1401)
WARNING: Building an occasional neighobr list when atoms may have moved too far (../neighbor.cpp:1401)
WARNING: Building an occasional neighobr list when atoms may have moved too far (../neighbor.cpp:1401)
WARNING: Building an occasional neighobr list when atoms may have moved too far (../neighbor.cpp:1401)
WARNING: Building an occasional neighobr list when atoms may have moved too far (../neighbor.cpp:1401)
WARNING: Building an occasional neighobr list when atoms may have moved too far (../neighbor.cpp:1401)
WARNING: Building an occasional neighobr list when atoms may have moved too far (../neighbor.cpp:1401)
WARNING: Building an occasional neighobr list when atoms may have moved too far (../neighbor.cpp:1401)
   38250    291.15369   -339.68137     8035.131   -2540.4698    443.48354     439.7978    10413.814   -2540.4698 
   38500    303.63562    256.50484    8085.4878   -2500.5601    462.49594    447.61497    10442.962   -2500.5601 
WARNING: Building an occasional neighobr list when atoms may have moved too far (../neighbor.cpp:1401)
WARNING: Building an occasional neighobr list when atoms may have moved too far (../neighbor.cpp:1401)
WARNING: Building an occasional neighobr list when atoms may have moved too far (../neighbor.cpp:1401)
WARNING: Building an occasional neighobr list when atoms may have moved too far (../neighbor.cpp:1401)
   38750    295.38673   -679.93634    7953.2875   -2496.1425    449.93127    397.91498    10498.509   -2496.1425 
WARNING: Building an occasional neighobr list when atoms may have moved too far (../neighbor.cpp:1401)
WARNING: Building an occasional neighobr list when atoms may have moved too far (../neighbor.cpp:1401)
WARNING: Building an occasional neighobr list when atoms may have moved too far (../neighbor.cpp:1401)
   39000     310.1891    80.661262    8188.0675   -2515.4158    472.47815    442.61387    10434.567   -2515.4158 
WARNING: Building an occasional neighobr list when atoms may have moved too far (../neighbor.cpp:1401)
WARNING: Building an occasional neighobr list when atoms may have moved too far (../neighbor.cpp:1401)
WARNING: Building an occasional neighobr list when atoms may have moved too far (../neighbor.cpp:1401)
   39250    306.49676     1427.446    7829.6867   -2563.6685    466.85401    493.41277    10336.233   -2563.6685 
   39500    282.67518    569.88004    8117.1416   -2550.1621    430.56912    486.50701    10357.725   -2550.1621 
WARNING: Building an occasional neighobr list when atoms may have moved too far (../neighbor.cpp:1401)
WARNING: Building an occasional neighobr list when atoms may have moved too far (../neighbor.cpp:1401)
   39750    302.33517   -637.97593    8219.6689   -2501.2993    460.51509    418.91985    10471.781   -2501.2993 
WARNING: Building an occasional neighobr list when atoms may have moved too far (../neighbor.cpp:1401)
WARNING: Building an occasional neighobr list when atoms may have moved too far (../neighbor.cpp:1401)
WARNING: Building an occasional neighobr list when atoms may have moved too far (../neighbor.cpp:1401)
   40000    300.83676    843.30675     8070.273   -2488.1134    458.23273    459.64033     10441.29   -2488.1134 
WARNING: Building an occasional neighobr list when atoms may have moved too far (../neighbor.cpp:1401)
WARNING: Building an occasional neighobr list when atoms may have moved too far (../neighbor.cpp:1401)
WARNING: Building an occasional neighobr list when atoms may have moved too far (../neighbor.cpp:1401)
WARNING: Building an occasional neighobr list when atoms may have moved too far (../neighbor.cpp:1401)
   40250    295.72656    481.10584    8135.5543     -2504.48    450.44891     461.0092    10428.695     -2504.48 
WARNING: Building an occasional neighobr list when atoms may have moved too far (../neighbor.cpp:1401)
WARNING: Building an occasional neighobr list when atoms may have moved too far (../neighbor.cpp:1401)
WARNING: Building an occasional neighobr list when atoms may have moved too far (../neighbor.cpp:1401)
WARNING: Building an occasional neighobr list when atoms may have moved too far (../neighbor.cpp:1401)
WARNING: Building an occasional neighobr list when atoms may have moved too far (../neighbor.cpp:1401)
   40500    311.06607   -481.24164    8005.0469    -2549.303    473.81396    424.89753    10418.501    -2549.303 
WARNING: Building an occasional neighobr list when atoms may have moved too far (../neighbor.cpp:1401)
WARNING: Building an occasional neighobr list when atoms may have moved too far (../neighbor.cpp:1401)
   40750    311.41398   -1204.5859    8015.5857   -2530.4451    474.34389    392.35499    10470.282   -2530.4451 
WARNING: Building an occasional neighobr list when atoms may have moved too far (../neighbor.cpp:1401)
WARNING: Building an occasional neighobr list when atoms may have moved too far (../neighbor.cpp:1401)
WARNING: Building an occasional neighobr list when atoms may have moved too far (../neighbor.cpp:1401)
   41000    311.05772    471.09751    7918.0552   -2527.7107    473.80124    453.49223    10409.803   -2527.7107 
WARNING: Building an occasional neighobr list when atoms may have moved too far (../neighbor.cpp:1401)
WARNING: Building an occasional neighobr list when atoms may have moved too far (../neighbor.cpp:1401)
WARNING: Building an occasional neighobr list when atoms may have moved too far (../neighbor.cpp:1401)
WARNING: Building an occasional neighobr list when atoms may have moved too far (../neighbor.cpp:1401)
WARNING: Building an occasional neighobr list when atoms may have moved too far (../neighbor.cpp:1401)
   41250    298.41694    912.59143    7972.7156   -2495.8245    454.54687    465.40667    10432.232   -2495.8245 
WARNING: Building an occasional neighobr list when atoms may have moved too far (../neighbor.cpp:1401)
WARNING: Building an occasional neighobr list when atoms may have moved too far (../neighbor.cpp:1401)
WARNING: Building an occasional neighobr list when atoms may have moved too far (../neighbor.cpp:1401)
WARNING: Building an occasional neighobr list when atoms may have moved too far (../neighbor.cpp:1401)
WARNING: Building an occasional neighobr list when atoms may have moved too far (../neighbor.cpp:1401)
   41500     314.7608   -207.97084    7951.7825   -2503.8981    479.44175    415.02872    10473.421   -2503.8981 
WARNING: Building an occasional neighobr list when atoms may have moved too far (../neighbor.cpp:1401)
WARNING: Building an occasional neighobr list when atoms may have moved too far (../neighbor.cpp:1401)
WARNING: Building an occasional neighobr list when atoms may have moved too far (../neighbor.cpp:1401)
   41750    304.68153   -597.03412    7910.2464   -2564.9757    464.08906    424.03261    10405.847   -2564.9757 
WARNING: Building an occasional neighobr list when atoms may have moved too far (../neighbor.cpp:1401)
   42000    302.44986   -19.136163    7825.0577    -2555.437    460.68979    441.53372    10394.528    -2555.437 
WARNING: Building an occasional neighobr list when atoms may have moved too far (../neighbor.cpp:1401)
   42250    286.20441    2209.5903    7883.9049   -2501.8787    435.94482    513.30937    10376.351   -2501.8787 
WARNING: Building an occasional neighobr list when atoms may have moved too far (../neighbor.cpp:1401)
   42500    298.20632   -402.72748    7918.9057    -2536.342    454.22606    419.51833    10435.672    -2536.342 
WARNING: Building an occasional neighobr list when atoms may have moved too far (../neighbor.cpp:1401)
WARNING: Building an occasional neighobr list when atoms may have moved too far (../neighbor.cpp:1401)
WARNING: Building an occasional neighobr list when atoms may have moved too far (../neighbor.cpp:1401)
   42750    287.97569   -1222.3778    7942.8072   -2518.8222    438.64283    388.42539     10487.76   -2518.8222 
WARNING: Building an occasional neighobr list when atoms may have moved too far (../neighbor.cpp:1401)
WARNING: Building an occasional neighobr list when atoms may have moved too far (../neighbor.cpp:1401)
WARNING: Building an occasional neighobr list when atoms may have moved too far (../neighbor.cpp:1401)
   43000    318.58838    257.89145    7909.3094   -2497.2421    485.27189    425.84397    10467.456   -2497.2421 
   43250    320.35542    13.612777    7987.9563   -2513.1637    487.96344    427.59146    10452.492   -2513.1637 
WARNING: Building an occasional neighobr list when atoms may have moved too far (../neighbor.cpp:1401)
WARNING: Building an occasional neighobr list when atoms may have moved too far (../neighbor.cpp:1401)
WARNING: Building an occasional neighobr list when atoms may have moved too far (../neighbor.cpp:1401)
WARNING: Building an occasional neighobr list when atoms may have moved too far (../neighbor.cpp:1401)
WARNING: Building an occasional neighobr list when atoms may have moved too far (../neighbor.cpp:1401)
WARNING: Building an occasional neighobr list when atoms may have moved too far (../neighbor.cpp:1401)
WARNING: Building an occasional neighobr list when atoms may have moved too far (../neighbor.cpp:1401)
WARNING: Building an occasional neighobr list when atoms may have moved too far (../neighbor.cpp:1401)
WARNING: Building an occasional neighobr list when atoms may have moved too far (../neighbor.cpp:1401)
WARNING: Building an occasional neighobr list when atoms may have moved too far (../neighbor.cpp:1401)
WARNING: Building an occasional neighobr list when atoms may have moved too far (../neighbor.cpp:1401)
WARNING: Building an occasional neighobr list when atoms may have moved too far (../neighbor.cpp:1401)
WARNING: Building an occasional neighobr list when atoms may have moved too far (../neighbor.cpp:1401)
   43500    289.03248    276.43703    7656.1493   -2551.9307    440.25252    436.31725    10406.146   -2551.9307 
WARNING: Building an occasional neighobr list when atoms may have moved too far (../neighbor.cpp:1401)
WARNING: Building an occasional neighobr list when atoms may have moved too far (../neighbor.cpp:1401)
   43750    310.47654    475.09232    7853.4215   -2534.9609    472.91598    453.01227     10404.51   -2534.9609 
WARNING: Building an occasional neighobr list when atoms may have moved too far (../neighbor.cpp:1401)
   44000     310.5662    629.23039    7920.5449   -2526.4489    473.05255    454.88556    10411.964   -2526.4489 
   44250    285.31282   -291.40056    7976.5937   -2528.4904    434.58676    436.86209    10429.101   -2528.4904 
WARNING: Building an occasional neighobr list when atoms may have moved too far (../neighbor.cpp:1401)
WARNING: Building an occasional neighobr list when atoms may have moved too far (../neighbor.cpp:1401)
   44500    296.47987   -328.62644     7848.428   -2501.9501    451.59634    410.40694    10480.743   -2501.9501 
WARNING: Building an occasional neighobr list when atoms may have moved too far (../neighbor.cpp:1401)
WARNING: Building an occasional neighobr list when atoms may have moved too far (../neighbor.cpp:1401)
   44750    303.68308   -1533.4612    8091.0841   -2488.8543    462.56823    371.94549    10532.007   -2488.8543 
WARNING: Building an occasional neighobr list when atoms may have moved too far (../neighbor.cpp:1401)
   45000    299.47223    191.81987    7823.4156     -2521.73    456.15428    433.35959    10437.751     -2521.73 
WARNING: Building an occasional neighobr list when atoms may have moved too far (../neighbor.cpp:1401)
WARNING: Building an occasional neighobr list when atoms may have moved too far (../neighbor.cpp:1401)
WARNING: Building an occasional neighobr list when atoms may have moved too far (../neighbor.cpp:1401)
   45250    286.73446    377.15183    7954.4721   -2524.9596    436.75218    451.13695    10417.907   -2524.9596 
WARNING: Building an occasional neighobr list when atoms may have moved too far (../neighbor.cpp:1401)
WARNING: Building an occasional neighobr list when atoms may have moved too far (../neighbor.cpp:1401)
   45500     304.6874     878.5877    7765.7732   -2504.2616    464.09799    444.20323    10446.099   -2504.2616 
WARNING: Building an occasional neighobr list when atoms may have moved too far (../neighbor.cpp:1401)
WARNING: Building an occasional neighobr list when atoms may have moved too far (../neighbor.cpp:1401)
WARNING: Building an occasional neighobr list when atoms may have moved too far (../neighbor.cpp:1401)
WARNING: Building an occasional neighobr list when atoms may have moved too far (../neighbor.cpp:1401)
WARNING: Building an occasional neighobr list when atoms may have moved too far (../neighbor.cpp:1401)
WARNING: Building an occasional neighobr list when atoms may have moved too far (../neighbor.cpp:1401)
WARNING: Building an occasional neighobr list when atoms may have moved too far (../neighbor.cpp:1401)
   45750    309.84955    3.7253088      7861.93   -2508.9129    471.96096    422.21081    10462.251   -2508.9129 
WARNING: Building an occasional neighobr list when atoms may have moved too far (../neighbor.cpp:1401)
WARNING: Building an occasional neighobr list when atoms may have moved too far (../neighbor.cpp:1401)
   46000    300.44285    375.87181    7898.9939   -2485.0457    457.63272    425.12837    10482.223   -2485.0457 
WARNING: Building an occasional neighobr list when atoms may have moved too far (../neighbor.cpp:1401)
WARNING: Building an occasional neighobr list when atoms may have moved too far (../neighbor.cpp:1401)
   46250    302.69191   -601.71423    8130.8419   -2488.5742    461.05849    402.79656    10500.151   -2488.5742 
WARNING: Building an occasional neighobr list when atoms may have moved too far (../neighbor.cpp:1401)
WARNING: Building an occasional neighobr list when atoms may have moved too far (../neighbor.cpp:1401)
WARNING: Building an occasional neighobr list when atoms may have moved too far (../neighbor.cpp:1401)
WARNING: Building an occasional neighobr list when atoms may have moved too far (../neighbor.cpp:1401)
   46500    318.74103    177.67064    7943.5912   -2570.3761     485.5044    455.33627    10367.714   -2570.3761 
WARNING: Building an occasional neighobr list when atoms may have moved too far (../neighbor.cpp:1401)
WARNING: Building an occasional neighobr list when atoms may have moved too far (../neighbor.cpp:1401)
[...]
WARNING: Building an occasional neighobr list when atoms may have moved too far (../neighbor.cpp:1401)
  237250    313.71921   -1127.5362    8051.8204   -2487.2141     477.8552    376.84512    10529.803   -2487.2141 
WARNING: Building an occasional neighobr list when atoms may have moved too far (../neighbor.cpp:1401)
WARNING: Building an occasional neighobr list when atoms may have moved too far (../neighbor.cpp:1401)
WARNING: Building an occasional neighobr list when atoms may have moved too far (../neighbor.cpp:1401)
  237500    307.17692    599.64917    7803.8109   -2529.2784    467.89002    454.16464    10411.729   -2529.2784 
WARNING: Building an occasional neighobr list when atoms may have moved too far (../neighbor.cpp:1401)
  237750    310.76339   -339.66436    8077.0284   -2530.6675    473.35291     437.7718      10422.4   -2530.6675 
  238000     309.8875    -691.5379    7935.9401   -2528.6682    472.01877    413.33521    10449.341   -2528.6682 
WARNING: Building an occasional neighobr list when atoms may have moved too far (../neighbor.cpp:1401)
WARNING: Building an occasional neighobr list when atoms may have moved too far (../neighbor.cpp:1401)
WARNING: Building an occasional neighobr list when atoms may have moved too far (../neighbor.cpp:1401)
WARNING: Building an occasional neighobr list when atoms may have moved too far (../neighbor.cpp:1401)
  238250    282.03772   -620.09624     7899.351   -2521.5115    429.59815    415.05088    10456.549   -2521.5115 
WARNING: Building an occasional neighobr list when atoms may have moved too far (../neighbor.cpp:1401)
WARNING: Building an occasional neighobr list when atoms may have moved too far (../neighbor.cpp:1401)
  238500    297.84412    488.15016    8029.4128   -2474.7331    453.67436    443.10018    10474.864   -2474.7331 
WARNING: Building an occasional neighobr list when atoms may have moved too far (../neighbor.cpp:1401)
WARNING: Building an occasional neighobr list when atoms may have moved too far (../neighbor.cpp:1401)
  238750    298.90569   -1414.6495    8050.7524   -2518.2254    455.29133    384.65283    10491.029   -2518.2254 
WARNING: Building an occasional neighobr list when atoms may have moved too far (../neighbor.cpp:1401)
WARNING: Building an occasional neighobr list when atoms may have moved too far (../neighbor.cpp:1401)
WARNING: Building an occasional neighobr list when atoms may have moved too far (../neighbor.cpp:1401)
WARNING: Building an occasional neighobr list when atoms may have moved too far (../neighbor.cpp:1401)
WARNING: Building an occasional neighobr list when atoms may have moved too far (../neighbor.cpp:1401)
WARNING: Building an occasional neighobr list when atoms may have moved too far (../neighbor.cpp:1401)
  239000    321.08582    688.12939    7820.6587     -2510.49    489.07597    449.99663    10430.055     -2510.49 
WARNING: Building an occasional neighobr list when atoms may have moved too far (../neighbor.cpp:1401)
  239250    290.35358   -2022.1943    8268.0379   -2529.4397    442.26482    375.57251    10485.735   -2529.4397 
WARNING: Building an occasional neighobr list when atoms may have moved too far (../neighbor.cpp:1401)
  239500    301.29082     928.9164    7766.8774   -2515.9268    458.92435    455.57097    10419.401   -2515.9268 
WARNING: Building an occasional neighobr list when atoms may have moved too far (../neighbor.cpp:1401)
WARNING: Building an occasional neighobr list when atoms may have moved too far (../neighbor.cpp:1401)
WARNING: Building an occasional neighobr list when atoms may have moved too far (../neighbor.cpp:1401)
WARNING: Building an occasional neighobr list when atoms may have moved too far (../neighbor.cpp:1401)
WARNING: Building an occasional neighobr list when atoms may have moved too far (../neighbor.cpp:1401)
WARNING: Building an occasional neighobr list when atoms may have moved too far (../neighbor.cpp:1401)
  239750    291.34385    722.42858    7717.4946   -2502.3509    443.77319     432.3351    10458.601   -2502.3509 
  240000    287.53091    136.66609    7815.1185    -2517.481    437.96534    421.11281    10453.845    -2517.481 
WARNING: Building an occasional neighobr list when atoms may have moved too far (../neighbor.cpp:1401)
WARNING: Building an occasional neighobr list when atoms may have moved too far (../neighbor.cpp:1401)
WARNING: Building an occasional neighobr list when atoms may have moved too far (../neighbor.cpp:1401)
  240250    295.49175    363.36684    7898.6958   -2514.1607    450.09124     440.8619    10438.282   -2514.1607 
WARNING: Building an occasional neighobr list when atoms may have moved too far (../neighbor.cpp:1401)
  240500    301.71385   -175.76546    7844.2062   -2563.0108     459.5687    434.71867    10396.099   -2563.0108 
WARNING: Building an occasional neighobr list when atoms may have moved too far (../neighbor.cpp:1401)
WARNING: Building an occasional neighobr list when atoms may have moved too far (../neighbor.cpp:1401)
WARNING: Building an occasional neighobr list when atoms may have moved too far (../neighbor.cpp:1401)
WARNING: Building an occasional neighobr list when atoms may have moved too far (../neighbor.cpp:1401)
WARNING: Building an occasional neighobr list when atoms may have moved too far (../neighbor.cpp:1401)
  240750    305.65247    633.95987    8004.5382   -2527.1499    465.56798    461.91643    10404.864   -2527.1499 
WARNING: Building an occasional neighobr list when atoms may have moved too far (../neighbor.cpp:1401)
WARNING: Building an occasional neighobr list when atoms may have moved too far (../neighbor.cpp:1401)
WARNING: Building an occasional neighobr list when atoms may have moved too far (../neighbor.cpp:1401)
WARNING: Building an occasional neighobr list when atoms may have moved too far (../neighbor.cpp:1401)
WARNING: Building an occasional neighobr list when atoms may have moved too far (../neighbor.cpp:1401)
WARNING: Building an occasional neighobr list when atoms may have moved too far (../neighbor.cpp:1401)
  241000    292.61568    1081.4996    7924.5694   -2565.9595    445.71043    497.13411    10328.941   -2565.9595 
WARNING: Building an occasional neighobr list when atoms may have moved too far (../neighbor.cpp:1401)
  241250     318.7982   -328.58238     7762.839   -2552.1029    485.59148     421.2492    10420.706   -2552.1029 
  241500    297.27943   -502.46407    8159.8664   -2530.5534    452.81423    434.47917    10427.625   -2530.5534 
  241750    292.92076   -155.26749    7817.2924   -2546.9849    446.17512    430.72674     10414.11   -2546.9849 
WARNING: Building an occasional neighobr list when atoms may have moved too far (../neighbor.cpp:1401)
WARNING: Building an occasional neighobr list when atoms may have moved too far (../neighbor.cpp:1401)
WARNING: Building an occasional neighobr list when atoms may have moved too far (../neighbor.cpp:1401)
WARNING: Building an occasional neighobr list when atoms may have moved too far (../neighbor.cpp:1401)
  242000    284.46377   -417.05299    7988.4116   -2506.9067    433.29348    418.02484    10468.712   -2506.9067 
WARNING: Building an occasional neighobr list when atoms may have moved too far (../neighbor.cpp:1401)
WARNING: Building an occasional neighobr list when atoms may have moved too far (../neighbor.cpp:1401)
  242250    288.09007    440.73648    8199.7874   -2528.8043    438.81705    469.10461    10397.054   -2528.8043 
  242500    311.33653   -39.726447     8356.289   -2499.6914    474.22591    449.88607    10442.775   -2499.6914 
  242750    289.62607   -342.52577    7911.2349   -2535.7276    441.15667    425.55514    10432.932   -2535.7276 
WARNING: Building an occasional neighobr list when atoms may have moved too far (../neighbor.cpp:1401)
WARNING: Building an occasional neighobr list when atoms may have moved too far (../neighbor.cpp:1401)
  243000    289.67833    1080.0739    7871.9494    -2541.669    441.23628    479.11405    10371.791    -2541.669 
WARNING: Building an occasional neighobr list when atoms may have moved too far (../neighbor.cpp:1401)
WARNING: Building an occasional neighobr list when atoms may have moved too far (../neighbor.cpp:1401)
WARNING: Building an occasional neighobr list when atoms may have moved too far (../neighbor.cpp:1401)
WARNING: Building an occasional neighobr list when atoms may have moved too far (../neighbor.cpp:1401)
  243250    302.93843   -1195.4297    8139.3907   -2501.1163    461.43398     383.4268     10508.55   -2501.1163 
WARNING: Building an occasional neighobr list when atoms may have moved too far (../neighbor.cpp:1401)
WARNING: Building an occasional neighobr list when atoms may have moved too far (../neighbor.cpp:1401)
WARNING: Building an occasional neighobr list when atoms may have moved too far (../neighbor.cpp:1401)
WARNING: Building an occasional neighobr list when atoms may have moved too far (../neighbor.cpp:1401)
  243500    295.68225   -875.53528    8188.9433   -2494.0122    450.38142    406.31229     10492.73   -2494.0122 
WARNING: Building an occasional neighobr list when atoms may have moved too far (../neighbor.cpp:1401)
WARNING: Building an occasional neighobr list when atoms may have moved too far (../neighbor.cpp:1401)
  243750    299.25094    761.49183      7792.45   -2539.4597    455.81722    451.87035    10403.514   -2539.4597 
WARNING: Building an occasional neighobr list when atoms may have moved too far (../neighbor.cpp:1401)
WARNING: Building an occasional neighobr list when atoms may have moved too far (../neighbor.cpp:1401)
WARNING: Building an occasional neighobr list when atoms may have moved too far (../neighbor.cpp:1401)
WARNING: Building an occasional neighobr list when atoms may have moved too far (../neighbor.cpp:1401)
  244000    284.28107    540.08682    7832.8041   -2551.5152    433.01521    468.65445    10375.169   -2551.5152 
WARNING: Building an occasional neighobr list when atoms may have moved too far (../neighbor.cpp:1401)
WARNING: Building an occasional neighobr list when atoms may have moved too far (../neighbor.cpp:1401)
WARNING: Building an occasional neighobr list when atoms may have moved too far (../neighbor.cpp:1401)
  244250    291.72521   -478.90623    8067.1226   -2473.2625    444.35407    406.21307    10514.312   -2473.2625 
WARNING: Building an occasional neighobr list when atoms may have moved too far (../neighbor.cpp:1401)
WARNING: Building an occasional neighobr list when atoms may have moved too far (../neighbor.cpp:1401)
WARNING: Building an occasional neighobr list when atoms may have moved too far (../neighbor.cpp:1401)
  244500    277.34665   -319.11562    7759.8168   -2523.3503    422.45274    401.58384    10468.479   -2523.3503 
WARNING: Building an occasional neighobr list when atoms may have moved too far (../neighbor.cpp:1401)
  244750    304.09381      350.187    7810.8993   -2482.6453    463.19385    422.79322    10488.153   -2482.6453 
WARNING: Building an occasional neighobr list when atoms may have moved too far (../neighbor.cpp:1401)
  245000    298.42306   -509.28633    8003.2524   -2551.7923    454.55619      424.579    10416.843   -2551.7923 
WARNING: Building an occasional neighobr list when atoms may have moved too far (../neighbor.cpp:1401)
WARNING: Building an occasional neighobr list when atoms may have moved too far (../neighbor.cpp:1401)
  245250    291.63754    309.07028     7948.971   -2519.0802    444.22053    449.23723    10421.971   -2519.0802 
WARNING: Building an occasional neighobr list when atoms may have moved too far (../neighbor.cpp:1401)
WARNING: Building an occasional neighobr list when atoms may have moved too far (../neighbor.cpp:1401)
  245500    326.94114    907.56832    7862.0315   -2537.6124    497.99476    466.48288    10388.172   -2537.6124 
WARNING: Building an occasional neighobr list when atoms may have moved too far (../neighbor.cpp:1401)
WARNING: Building an occasional neighobr list when atoms may have moved too far (../neighbor.cpp:1401)
WARNING: Building an occasional neighobr list when atoms may have moved too far (../neighbor.cpp:1401)
WARNING: Building an occasional neighobr list when atoms may have moved too far (../neighbor.cpp:1401)
WARNING: Building an occasional neighobr list when atoms may have moved too far (../neighbor.cpp:1401)
WARNING: Building an occasional neighobr list when atoms may have moved too far (../neighbor.cpp:1401)
  245750    317.90001    284.35305    8094.2134     -2547.22    484.22337    469.77192    10375.419     -2547.22 
WARNING: Building an occasional neighobr list when atoms may have moved too far (../neighbor.cpp:1401)
WARNING: Building an occasional neighobr list when atoms may have moved too far (../neighbor.cpp:1401)
WARNING: Building an occasional neighobr list when atoms may have moved too far (../neighbor.cpp:1401)
  246000    299.11283    806.00386    8059.4957   -2535.6012    455.60685    480.91054    10375.755   -2535.6012 
WARNING: Building an occasional neighobr list when atoms may have moved too far (../neighbor.cpp:1401)
WARNING: Building an occasional neighobr list when atoms may have moved too far (../neighbor.cpp:1401)
WARNING: Building an occasional neighobr list when atoms may have moved too far (../neighbor.cpp:1401)
WARNING: Building an occasional neighobr list when atoms may have moved too far (../neighbor.cpp:1401)
WARNING: Building an occasional neighobr list when atoms may have moved too far (../neighbor.cpp:1401)
WARNING: Building an occasional neighobr list when atoms may have moved too far (../neighbor.cpp:1401)
  246250    295.49711    -116.4485    8020.4179   -2516.1773     450.0994    434.77267    10441.068   -2516.1773 
WARNING: Building an occasional neighobr list when atoms may have moved too far (../neighbor.cpp:1401)
WARNING: Building an occasional neighobr list when atoms may have moved too far (../neighbor.cpp:1401)
WARNING: Building an occasional neighobr list when atoms may have moved too far (../neighbor.cpp:1401)
WARNING: Building an occasional neighobr list when atoms may have moved too far (../neighbor.cpp:1401)
  246500    288.01145   -875.80367    7871.7747   -2544.8252     438.6973    403.40666    10444.822   -2544.8252 
WARNING: Building an occasional neighobr list when atoms may have moved too far (../neighbor.cpp:1401)
WARNING: Building an occasional neighobr list when atoms may have moved too far (../neighbor.cpp:1401)
WARNING: Building an occasional neighobr list when atoms may have moved too far (../neighbor.cpp:1401)
  246750    317.79551    403.20551    7845.9372   -2472.1983     484.0642    419.49311    10501.561   -2472.1983 
WARNING: Building an occasional neighobr list when atoms may have moved too far (../neighbor.cpp:1401)
WARNING: Building an occasional neighobr list when atoms may have moved too far (../neighbor.cpp:1401)
WARNING: Building an occasional neighobr list when atoms may have moved too far (../neighbor.cpp:1401)
WARNING: Building an occasional neighobr list when atoms may have moved too far (../neighbor.cpp:1401)
  247000    285.90778   -598.20419    7790.2085     -2533.44      435.493    409.46005    10448.632     -2533.44 
  247250    297.76986    -836.6172     7955.837   -2513.2575    453.56124    397.24762    10482.359   -2513.2575 
WARNING: Building an occasional neighobr list when atoms may have moved too far (../neighbor.cpp:1401)
WARNING: Building an occasional neighobr list when atoms may have moved too far (../neighbor.cpp:1401)
WARNING: Building an occasional neighobr list when atoms may have moved too far (../neighbor.cpp:1401)
  247500    279.36314    865.63977    7832.9225   -2547.0792    425.52424    469.71602    10372.584   -2547.0792 
  247750    293.87526   -96.455241    7959.9845   -2539.3265    447.62901    442.39801    10410.868   -2539.3265 
  248000    302.02988   -92.705424    7978.8571   -2489.1116    460.05008    419.62392    10485.162   -2489.1116 
WARNING: Building an occasional neighobr list when atoms may have moved too far (../neighbor.cpp:1401)
WARNING: Building an occasional neighobr list when atoms may have moved too far (../neighbor.cpp:1401)
WARNING: Building an occasional neighobr list when atoms may have moved too far (../neighbor.cpp:1401)
WARNING: Building an occasional neighobr list when atoms may have moved too far (../neighbor.cpp:1401)
WARNING: Building an occasional neighobr list when atoms may have moved too far (../neighbor.cpp:1401)
  248250    288.45984    -548.4197    7885.5458   -2542.7007    439.38028    413.78505     10435.26   -2542.7007 
  248500    290.11644   -174.08811    7914.1212   -2485.7158    441.90361    412.37605     10494.32   -2485.7158 
WARNING: Building an occasional neighobr list when atoms may have moved too far (../neighbor.cpp:1401)
WARNING: Building an occasional neighobr list when atoms may have moved too far (../neighbor.cpp:1401)
  248750    308.01244   -339.91042     8019.757   -2496.1605    469.16269    417.99392    10479.197   -2496.1605 
WARNING: Building an occasional neighobr list when atoms may have moved too far (../neighbor.cpp:1401)
WARNING: Building an occasional neighobr list when atoms may have moved too far (../neighbor.cpp:1401)
WARNING: Building an occasional neighobr list when atoms may have moved too far (../neighbor.cpp:1401)
  249000    309.07485     605.2494    7836.7128   -2529.4996    470.78094    453.42478    10408.517   -2529.4996 
WARNING: Building an occasional neighobr list when atoms may have moved too far (../neighbor.cpp:1401)
WARNING: Building an occasional neighobr list when atoms may have moved too far (../neighbor.cpp:1401)
  249250    294.50412    94.757308    7917.6803   -2501.0026    448.58689      420.395    10471.666   -2501.0026 
WARNING: Building an occasional neighobr list when atoms may have moved too far (../neighbor.cpp:1401)
WARNING: Building an occasional neighobr list when atoms may have moved too far (../neighbor.cpp:1401)
  249500     306.3775   -303.15688    8299.5632   -2474.5455    466.67235    427.42795    10488.376   -2474.5455 
WARNING: Building an occasional neighobr list when atoms may have moved too far (../neighbor.cpp:1401)
WARNING: Building an occasional neighobr list when atoms may have moved too far (../neighbor.cpp:1401)
WARNING: Building an occasional neighobr list when atoms may have moved too far (../neighbor.cpp:1401)
  249750    311.05108    -181.3967    8013.7912   -2512.8148    473.79112    422.36639    10459.825   -2512.8148 
WARNING: Building an occasional neighobr list when atoms may have moved too far (../neighbor.cpp:1401)
WARNING: Building an occasional neighobr list when atoms may have moved too far (../neighbor.cpp:1401)
WARNING: Building an occasional neighobr list when atoms may have moved too far (../neighbor.cpp:1401)
  250000    298.48245    363.55939    7902.5126     -2500.89    454.64666    440.56845    10451.893     -2500.89 
Loop time of 3498.05 on 1 procs (1 MPI x 1 OpenMP) for 250000 steps with 768 atoms

Pair  time (%) = 1365.43 (39.034)
Bond  time (%) = 0.155503 (0.00444542)
Kspce time (%) = 142.214 (4.06552)
Neigh time (%) = 193.717 (5.53785)
Comm  time (%) = 14.4242 (0.412351)
Outpt time (%) = 0.237864 (0.00679991)
Other time (%) = 1781.87 (50.939)

FFT time (% of Kspce) = 19.3203 (13.5854)
FFT Gflps 3d (1d only) = 3.33374 8.95069

Nlocal:    768 ave 768 max 768 min
Histogram: 1 0 0 0 0 0 0 0 0 0
Nghost:    7273 ave 7273 max 7273 min
Histogram: 1 0 0 0 0 0 0 0 0 0
Neighs:    256643 ave 256643 max 256643 min
Histogram: 1 0 0 0 0 0 0 0 0 0

Total # of neighbors = 256643
Ave neighs/atom = 334.171
Ave special neighs/atom = 2
Neighbor list builds = 21537
Dangerous builds = 5789
write_restart   confout-0.data
PPPM initialization ...
  G vector (1/distance) = 0.280509
  grid = 12 12 12
  stencil order = 5
  estimated absolute RMS force accuracy = 0.0164267
  estimated relative force accuracy = 4.94684e-05
  using double precision FFTs
  3d grid and FFT values/proc = 6859 1728
