ITEM: TIMESTEP
0
ITEM: NUMBER OF ATOMS
768
ITEM: BOX BOUNDS pp pp pp
0 20.75
0 20.75
0 20.75
ITEM: ATOMS id mol type x y z ix iy iz 
1 1 1 0.19 3.68 6.47 0 0 0 
2 1 2 20.12 4.11 6.86 -1 0 0 
3 1 2 20.66 2.95 5.84 -1 0 0 
4 2 1 5.69 12.751 11.651 0 0 0 
5 2 2 4.76 12.681 11.281 0 0 0 
6 2 2 5.8 13.641 12.091 0 0 0 
7 3 1 15.551 15.111 7.03 0 0 0 
8 3 2 14.981 14.951 7.84 0 0 0 
9 3 2 14.961 15.211 6.23 0 0 0 
10 4 1 17.431 6.18 8.56 0 0 0 
11 4 2 17.761 7.12 8.56 0 0 0 
12 4 2 17.941 5.64 9.22 0 0 0 
13 5 1 11.351 7.03 7.17 0 0 0 
14 5 2 11.921 7.81 6.92 0 0 0 
15 5 2 10.751 7.29 7.93 0 0 0 
16 6 1 17.551 6.07 2.31 0 0 0 
17 6 2 17.431 5.94 1.32 0 0 0 
18 6 2 17.251 5.26 2.8 0 0 0 
19 7 1 7.68 11.441 10.231 0 0 0 
20 7 2 6.9 11.611 10.831 0 0 0 
21 7 2 8.02 12.311 9.871 0 0 0 
22 8 1 8.5 7.98 18.231 0 0 0 
23 8 2 8.46 8.74 18.881 0 0 0 
24 8 2 8.72 8.34 17.321 0 0 0 
25 9 1 6.85 10.121 6.65 0 0 0 
26 9 2 7.54 9.961 7.35 0 0 0 
27 9 2 6.12 10.691 7.03 0 0 0 
28 10 1 6.86 11.611 18.031 0 0 0 
29 10 2 7.46 12.401 18.171 0 0 0 
30 10 2 6 11.921 17.621 0 0 0 
31 11 1 3.35 14.351 10.611 0 0 0 
32 11 2 2.57 14.041 10.081 0 0 0 
33 11 2 3.93 14.931 10.041 0 0 0 
34 12 1 14.601 15.051 13.391 0 0 0 
35 12 2 14.841 15.991 13.651 0 0 0 
36 12 2 14.441 14.511 14.211 0 0 0 
37 13 1 4.38 3.92 14.991 0 0 0 
38 13 2 5.2 3.36 15.081 0 0 0 
39 13 2 3.57 3.34 15.031 0 0 0 
40 14 1 16.031 4.47 7.37 0 0 0 
41 14 2 15.291 4.93 6.87 0 0 0 
42 14 2 16.541 5.15 7.9 0 0 0 
43 15 1 2.31 17.131 4.83 0 0 0 
44 15 2 2.65 17.901 5.37 0 0 0 
45 15 2 2.75 17.131 3.93 0 0 0 
46 16 1 11.271 13.411 16.901 0 0 0 
47 16 2 11.741 13.411 17.781 0 0 0 
48 16 2 10.791 12.541 16.791 0 0 0 
49 17 1 2.3 14.341 5.38 0 0 0 
50 17 2 2.04 15.301 5.38 0 0 0 
51 17 2 1.59 13.801 5.83 0 0 0 
52 18 1 2.4 10.911 8.86 0 0 0 
53 18 2 2.54 10.071 9.38 0 0 0 
54 18 2 1.85 11.551 9.41 0 0 0 
55 19 1 6.2 17.861 14.391 0 0 0 
56 19 2 5.28 17.691 14.741 0 0 0 
57 19 2 6.48 18.781 14.651 0 0 0 
58 20 1 6.06 9.641 1.23 0 0 0 
59 20 2 6.13 10.481 0.69 0 0 0 
60 20 2 6.52 9.771 2.11 0 0 0 
61 21 1 15.941 1.14 14.801 0 0 0 
62 21 2 15.761 1.81 14.081 0 0 0 
63 21 2 15.911 1.6 15.691 0 0 0 
64 22 1 1.22 6.43 5.63 0 0 0 
65 22 2 0.77 5.55 5.8 0 0 0 
66 22 2 1.21 6.97 6.47 0 0 0 
67 23 1 18.421 17.671 3.59 0 0 0 
68 23 2 18.961 17.381 4.39 0 0 0 
69 23 2 18.721 18.571 3.3 0 0 0 
70 24 1 0.27 15.961 1.17 0 0 0 
71 24 2 0.08 15.001 1.38 0 0 0 
72 24 2 20.69 16.541 1.92 -1 0 0 
73 25 1 16.891 9.22 6.12 0 0 0 
74 25 2 17.841 8.93 6.2 0 0 0 
75 25 2 16.811 9.87 5.37 0 0 0 
76 26 1 16.411 11.081 4.32 0 0 0 
77 26 2 17.271 11.101 3.8 0 0 0 
78 26 2 16.551 11.551 5.2 0 0 0 
79 27 1 6.13 13.651 7.26 0 0 0 
80 27 2 5.64 12.781 7.35 0 0 0 
81 27 2 5.9 14.081 6.39 0 0 0 
82 28 1 12.931 12.281 14.231 0 0 0 
83 28 2 13.301 11.551 13.651 0 0 0 
84 28 2 13.451 12.331 15.081 0 0 0 
85 29 1 8.09 0.04 5.02 0 0 0 
86 29 2 8.49 0.95 4.93 0 0 0 
87 29 2 7.09 0.12 5.08 0 0 0 
88 30 1 15.251 9.991 1.9 0 0 0 
89 30 2 14.621 9.231 2.03 0 0 0 
90 30 2 15.731 10.171 2.76 0 0 0 
91 31 1 11.871 17.921 16.161 0 0 0 
92 31 2 12.111 18.521 15.401 0 0 0 
93 31 2 11.941 16.971 15.861 0 0 0 
94 32 1 3.17 2.51 18.011 0 0 0 
95 32 2 3.88 3.22 18.071 0 0 0 
96 32 2 2.29 2.9 18.291 0 0 0 
97 33 1 14.661 14.171 9.531 0 0 0 
98 33 2 14.071 14.231 10.331 0 0 0 
99 33 2 14.511 13.291 9.071 0 0 0 
100 34 1 16.671 17.141 5.72 0 0 0 
101 34 2 16.261 16.911 4.84 0 0 0 
102 34 2 16.491 16.401 6.37 0 0 0 
103 35 1 5.98 7.29 2.7 0 0 0 
104 35 2 6.22 7.98 2.02 0 0 0 
105 35 2 5.2 7.62 3.24 0 0 0 
106 36 1 12.811 3.45 9.441 0 0 0 
107 36 2 11.951 2.95 9.311 0 0 0 
108 36 2 13.431 2.91 10.001 0 0 0 
109 37 1 15.761 16.621 3.07 0 0 0 
110 37 2 16.651 17.081 3.1 0 0 0 
111 37 2 15.551 16.381 2.12 0 0 0 
112 38 1 8.07 6.05 14.651 0 0 0 
113 38 2 7.6 6.02 15.541 0 0 0 
114 38 2 7.56 5.5 13.991 0 0 0 
115 39 1 13.941 4.69 16.741 0 0 0 
116 39 2 13.741 5.12 17.621 0 0 0 
117 39 2 14.721 4.07 16.831 0 0 0 
118 40 1 9.731 8.9 15.721 0 0 0 
119 40 2 10.191 8.06 15.431 0 0 0 
120 40 2 9.171 9.24 14.971 0 0 0 
121 41 1 9.911 4.1 12.421 0 0 0 
122 41 2 9.141 4.44 12.961 0 0 0 
123 41 2 9.571 3.59 11.631 0 0 0 
124 42 1 10.411 7.01 4.29 0 0 0 
125 42 2 10.671 6.97 5.25 0 0 0 
126 42 2 9.561 6.5 4.15 0 0 0 
127 43 1 1.3 18.211 15.711 0 0 0 
128 43 2 1.2 18.061 16.701 0 0 0 
129 43 2 0.44 18.571 15.351 0 0 0 
130 44 1 8.65 3.48 1.95 0 0 0 
131 44 2 9.24 4.11 1.46 0 0 0 
132 44 2 8.84 2.54 1.66 0 0 0 
133 45 1 17.191 5.85 18.311 0 0 0 
134 45 2 16.931 6.74 17.951 0 0 0 
135 45 2 17.171 5.17 17.581 0 0 0 
136 46 1 13.621 11.441 5.45 0 0 0 
137 46 2 14.451 11.151 4.97 0 0 0 
138 46 2 13.131 12.111 4.89 0 0 0 
139 47 1 5.5 1.96 8.85 0 0 0 
140 47 2 5.45 1.91 9.85 0 0 0 
141 47 2 5.52 2.92 8.56 0 0 0 
142 48 1 10.081 14.561 4.77 0 0 0 
143 48 2 9.621 15.281 4.25 0 0 0 
144 48 2 10.041 14.761 5.75 0 0 0 
145 49 1 3.51 18.011 8.53 0 0 0 
146 49 2 4.01 17.151 8.59 0 0 0 
147 49 2 4.16 18.781 8.5 0 0 0 
148 50 1 17.951 10.661 8.73 0 0 0 
149 50 2 17.331 10.511 7.97 0 0 0 
150 50 2 17.431 10.771 9.58 0 0 0 
151 51 1 12.271 15.501 15.061 0 0 0 
152 51 2 12.331 14.731 15.701 0 0 0 
153 51 2 11.751 15.241 14.261 0 0 0 
154 52 1 3.21 9.431 2.42 0 0 0 
155 52 2 4.03 9.821 2 0 0 0 
156 52 2 2.94 8.611 1.93 0 0 0 
157 53 1 14.581 7.35 7.28 0 0 0 
158 53 2 14.531 6.7 8.03 0 0 0 
159 53 2 15.381 7.94 7.41 0 0 0 
160 54 1 4.61 12.661 17.271 0 0 0 
161 54 2 4.11 12.671 16.411 0 0 0 
162 54 2 3.98 12.481 18.031 0 0 0 
163 55 1 11.111 17.761 2.37 0 0 0 
164 55 2 10.511 17.141 2.87 0 0 0 
165 55 2 11.421 17.321 1.52 0 0 0 
166 56 1 2.02 2.85 14.981 0 0 0 
167 56 2 1.22 3.45 14.851 0 0 0 
168 56 2 1.92 2.36 15.841 0 0 0 
169 57 1 16.321 13.771 0.81 0 0 0 
170 57 2 16.001 14.711 0.71 0 0 0 
171 57 2 15.561 13.141 0.69 0 0 0 
172 58 1 4.64 17.431 3.23 0 0 0 
173 58 2 4.97 17.821 4.09 0 0 0 
174 58 2 5.4 17.361 2.58 0 0 0 
175 59 1 14.001 1.07 4.26 0 0 0 
176 59 2 13.761 0.7 3.36 0 0 0 
177 59 2 14.991 1.23 4.3 0 0 0 
178 60 1 2.49 17.851 12.411 0 0 0 
179 60 2 3.06 17.201 12.911 0 0 0 
180 60 2 2.33 17.521 11.481 0 0 0 
181 61 1 9.401 16.981 9.04 0 0 0 
182 61 2 10.201 16.411 9.25 0 0 0 
183 61 2 8.911 16.581 8.27 0 0 0 
184 62 1 3.82 7 4.8 0 0 0 
185 62 2 4.27 6.1 4.77 0 0 0 
186 62 2 2.88 6.89 5.13 0 0 0 
187 63 1 15.471 2.22 17.291 0 0 0 
188 63 2 15.421 2.59 18.211 0 0 0 
189 63 2 14.751 1.53 17.171 0 0 0 
190 64 1 6.14 1.22 1.17 0 0 0 
191 64 2 7.12 1 1.24 0 0 0 
192 64 2 5.83 1.05 0.24 0 0 0 
193 65 1 7.81 2.64 17.491 0 0 0 
194 65 2 8.48 2.03 17.921 0 0 0 
195 65 2 7.08 2.83 18.141 0 0 0 
196 66 1 8.88 15.141 11.951 0 0 0 
197 66 2 8.65 14.891 11.011 0 0 0 
198 66 2 9.49 14.451 12.341 0 0 0 
199 67 1 13.511 5.9 14.331 0 0 0 
200 67 2 13.791 5.47 15.181 0 0 0 
201 67 2 13.761 6.86 14.341 0 0 0 
202 68 1 8.03 14.021 9.24 0 0 0 
203 68 2 8.93 14.161 8.82 0 0 0 
204 68 2 7.32 14.041 8.53 0 0 0 
205 69 1 9.22 5.03 8.99 0 0 0 
206 69 2 8.97 4.94 8.03 0 0 0 
207 69 2 9.7 4.21 9.3 0 0 0 
208 70 1 5.39 0.64 5.12 0 0 0 
209 70 2 4.58 0.65 5.7 0 0 0 
210 70 2 5.42 1.47 4.57 0 0 0 
211 71 1 14.341 11.881 0.41 0 0 0 
212 71 2 14.661 11.121 0.98 0 0 0 
213 71 2 13.421 12.151 0.71 0 0 0 
214 72 1 2.97 0.35 1.71 0 0 0 
215 72 2 3.46 1.19 1.5 0 0 0 
216 72 2 3.59 20.45 2.16 0 -1 0 
217 73 1 9.351 2.36 4.8 0 0 0 
218 73 2 8.871 2.77 4.02 0 0 0 
219 73 2 10.341 2.34 4.61 0 0 0 
220 74 1 10.761 6.83 14.641 0 0 0 
221 74 2 9.961 6.22 14.671 0 0 0 
222 74 2 11.571 6.3 14.401 0 0 0 
223 75 1 12.271 15.701 7.93 0 0 0 
224 75 2 12.481 16.441 7.28 0 0 0 
225 75 2 12.951 15.701 8.66 0 0 0 
226 76 1 4.59 11.521 7.41 0 0 0 
227 76 2 3.88 11.251 8.06 0 0 0 
228 76 2 4.33 11.241 6.48 0 0 0 
229 77 1 12.711 17.971 5.91 0 0 0 
230 77 2 13.151 18.611 5.27 0 0 0 
231 77 2 12.211 18.491 6.61 0 0 0 
232 78 1 10.321 5.49 0.16 0 0 0 
233 78 2 9.911 6.31 20.52 0 0 -1 
234 78 2 10.961 5.75 0.89 0 0 0 
235 79 1 5.61 2.22 11.471 0 0 0 
236 79 2 5.99 1.38 11.841 0 0 0 
237 79 2 4.73 2.41 11.911 0 0 0 
238 80 1 8.66 4.54 6.42 0 0 0 
239 80 2 8.34 5.26 5.8 0 0 0 
240 80 2 8.9 3.73 5.89 0 0 0 
241 81 1 10.171 0.39 7.53 0 0 0 
242 81 2 9.451 0.44 6.84 0 0 0 
243 81 2 9.931 20.45 8.22 0 -1 0 
244 82 1 14.291 11.731 8.67 0 0 0 
245 82 2 13.741 10.891 8.6 0 0 0 
246 82 2 14.551 12.021 7.75 0 0 0 
247 83 1 14.661 5.9 9.921 0 0 0 
248 83 2 14.361 4.95 9.991 0 0 0 
249 83 2 15.391 6.06 10.581 0 0 0 
250 84 1 18.571 8.33 3.77 0 0 0 
251 84 2 18.991 7.69 4.41 0 0 0 
252 84 2 18.191 7.82 2.99 0 0 0 
253 85 1 4.88 13.851 1.74 0 0 0 
254 85 2 4.01 13.701 2.21 0 0 0 
255 85 2 4.71 14.111 0.79 0 0 0 
256 86 1 16.641 12.801 6.57 0 0 0 
257 86 2 17.631 12.881 6.71 0 0 0 
258 86 2 16.191 13.641 6.88 0 0 0 
259 87 1 13.901 5.75 0.78 0 0 0 
260 87 2 13.361 5.54 1.59 0 0 0 
261 87 2 14.811 5.34 0.87 0 0 0 
262 88 1 5.27 2.56 3.28 0 0 0 
263 88 2 5.54 1.97 2.53 0 0 0 
264 88 2 5.27 3.51 2.97 0 0 0 
265 89 1 17.541 12.231 15.881 0 0 0 
266 89 2 18.451 11.841 15.751 0 0 0 
267 89 2 17.621 13.191 16.121 0 0 0 
268 90 1 10.641 13.471 13.401 0 0 0 
269 90 2 9.841 13.241 13.951 0 0 0 
270 90 2 11.471 13.211 13.891 0 0 0 
271 91 1 15.921 16.291 16.251 0 0 0 
272 91 2 16.191 16.631 15.351 0 0 0 
273 91 2 16.711 15.911 16.711 0 0 0 
274 92 1 11.111 11.951 11.001 0 0 0 
275 92 2 10.711 12.391 11.811 0 0 0 
276 92 2 10.701 12.321 10.171 0 0 0 
277 93 1 16.381 10.991 10.791 0 0 0 
278 93 2 16.431 11.801 11.381 0 0 0 
279 93 2 15.521 11.011 10.281 0 0 0 
280 94 1 9.15 0.89 14.021 0 0 0 
281 94 2 9.4 0.69 13.071 0 0 0 
282 94 2 9.87 1.45 14.441 0 0 0 
283 95 1 9.801 11.161 17.191 0 0 0 
284 95 2 8.811 11.221 17.291 0 0 0 
285 95 2 10.031 10.361 16.631 0 0 0 
286 96 1 7.05 10.501 3.68 0 0 0 
287 96 2 6.91 10.571 4.67 0 0 0 
288 96 2 7.89 9.991 3.5 0 0 0 
289 97 1 12.741 3.86 12.621 0 0 0 
290 97 2 12.951 4.6 13.261 0 0 0 
291 97 2 11.851 4.03 12.191 0 0 0 
292 98 1 3.67 11.001 5.01 0 0 0 
293 98 2 3.6 11.831 4.45 0 0 0 
294 98 2 3.71 10.201 4.41 0 0 0 
295 99 1 5.66 5.37 8.65 0 0 0 
296 99 2 5.78 6.03 7.91 0 0 0 
297 99 2 6.12 5.71 9.48 0 0 0 
298 100 1 12.521 13.481 3.88 0 0 0 
299 100 2 13.021 14.251 4.28 0 0 0 
300 100 2 11.571 13.501 4.2 0 0 0 
301 101 1 12.721 14.451 11.421 0 0 0 
302 101 2 13.191 14.581 12.291 0 0 0 
303 101 2 12.061 13.711 11.511 0 0 0 
304 102 1 15.821 6.39 4.72 0 0 0 
305 102 2 15.511 7 5.45 0 0 0 
306 102 2 16.321 6.91 4.03 0 0 0 
307 103 1 3.54 15.101 13.291 0 0 0 
308 103 2 3.33 14.661 12.421 0 0 0 
309 103 2 4.51 15.361 13.321 0 0 0 
310 104 1 4.02 7.51 15.981 0 0 0 
311 104 2 4.7 8.06 15.511 0 0 0 
312 104 2 4.42 6.63 16.251 0 0 0 
313 105 1 15.871 7.79 16.701 0 0 0 
314 105 2 14.951 8.17 16.651 0 0 0 
315 105 2 16.471 8.26 16.051 0 0 0 
316 106 1 10.131 1.05 17.701 0 0 0 
317 106 2 10.191 1.9 17.181 0 0 0 
318 106 2 10.451 0.29 17.131 0 0 0 
319 107 1 5.04 0.5 17.401 0 0 0 
320 107 2 4.62 20.68 16.701 0 -1 0 
321 107 2 4.38 1.19 17.721 0 0 0 
322 108 1 5.73 8.7 10.291 0 0 0 
323 108 2 6.17 9.59 10.201 0 0 0 
324 108 2 5.1 8.7 11.061 0 0 0 
325 109 1 13.601 8.62 10.451 0 0 0 
326 109 2 12.851 8.62 9.791 0 0 0 
327 109 2 13.971 7.7 10.541 0 0 0 
328 110 1 12.091 5.25 2.75 0 0 0 
329 110 2 12.221 4.41 3.29 0 0 0 
330 110 2 11.801 5.99 3.35 0 0 0 
331 111 1 3.07 2.13 12.311 0 0 0 
332 111 2 2.84 2.5 13.211 0 0 0 
333 111 2 2.77 1.18 12.251 0 0 0 
334 112 1 0.37 13.101 12.821 0 0 0 
335 112 2 0.9 12.611 13.501 0 0 0 
336 112 2 0.59 14.081 12.871 0 0 0 
337 113 1 7.32 6.34 10.641 0 0 0 
338 113 2 7.91 6.08 9.881 0 0 0 
339 113 2 7.04 7.3 10.531 0 0 0 
340 114 1 17.281 9.351 18.541 0 0 0 
341 114 2 16.821 9.281 17.651 0 0 0 
342 114 2 16.661 9.791 19.201 0 0 0 
343 115 1 16.221 3.67 3.74 0 0 0 
344 115 2 16.241 2.91 4.38 0 0 0 
345 115 2 15.741 4.44 4.14 0 0 0 
346 116 1 10.231 7.66 9.661 0 0 0 
347 116 2 10.381 7.87 10.621 0 0 0 
348 116 2 9.931 6.71 9.571 0 0 0 
349 117 1 9.801 15.731 17.001 0 0 0 
350 117 2 9.601 16.171 16.121 0 0 0 
351 117 2 10.191 14.821 16.841 0 0 0 
352 118 1 18.591 15.181 16.051 0 0 0 
353 118 2 18.731 15.451 15.101 0 0 0 
354 118 2 19.421 15.401 16.581 0 0 0 
355 119 1 3.5 8.98 18.041 0 0 0 
356 119 2 4.26 9.42 18.521 0 0 0 
357 119 2 3.85 8.51 17.221 0 0 0 
358 120 1 15.401 2.74 1.25 0 0 0 
359 120 2 14.791 1.99 1.48 0 0 0 
360 120 2 15.621 3.26 2.08 0 0 0 
361 121 1 13.031 8.38 0.42 0 0 0 
362 121 2 13.371 7.45 0.57 0 0 0 
363 121 2 13.211 8.65 20.22 0 0 -1 
364 122 1 10.681 13.331 8.49 0 0 0 
365 122 2 10.751 12.491 7.94 0 0 0 
366 122 2 11.301 14.021 8.13 0 0 0 
367 123 1 3.39 5.09 10.061 0 0 0 
368 123 2 2.87 4.26 9.891 0 0 0 
369 123 2 4.16 5.14 9.421 0 0 0 
370 124 1 5.11 4.15 18.081 0 0 0 
371 124 2 4.93 4.6 18.961 0 0 0 
372 124 2 5.53 4.8 17.451 0 0 0 
373 125 1 11.381 3.8 16.781 0 0 0 
374 125 2 10.931 4.43 17.421 0 0 0 
375 125 2 12.311 4.11 16.611 0 0 0 
376 126 1 11.601 2.07 14.771 0 0 0 
377 126 2 11.601 2.71 15.541 0 0 0 
378 126 2 11.881 2.55 13.941 0 0 0 
379 127 1 5.04 15.681 9.1 0 0 0 
380 127 2 5.7 16.421 9.19 0 0 0 
381 127 2 5.48 14.891 8.68 0 0 0 
382 128 1 10.021 7.96 12.381 0 0 0 
383 128 2 10.431 7.64 13.241 0 0 0 
384 128 2 9.061 7.69 12.351 0 0 0 
385 129 1 1.89 5.2 17.221 0 0 0 
386 129 2 2.48 4.8 16.521 0 0 0 
387 129 2 1.31 5.91 16.811 0 0 0 
388 130 1 13.691 9.501 16.601 0 0 0 
389 130 2 14.081 10.391 16.801 0 0 0 
390 130 2 13.791 9.301 15.631 0 0 0 
391 131 1 8.15 5.72 3.25 0 0 0 
392 131 2 8.22 4.83 2.79 0 0 0 
393 131 2 7.21 6.06 3.17 0 0 0 
394 132 1 16.571 6.04 12.061 0 0 0 
395 132 2 16.191 5.35 12.681 0 0 0 
396 132 2 17.391 5.68 11.621 0 0 0 
397 133 1 2.52 15.641 17.441 0 0 0 
398 133 2 2.22 16.211 18.201 0 0 0 
399 133 2 2.45 14.671 17.701 0 0 0 
400 134 1 6.71 4.64 12.691 0 0 0 
401 134 2 6.37 3.75 12.391 0 0 0 
402 134 2 6.97 5.18 11.891 0 0 0 
403 135 1 9.3 16.781 14.651 0 0 0 
404 135 2 9.06 16.601 13.701 0 0 0 
405 135 2 9.6 17.721 14.751 0 0 0 
406 136 1 4.73 5 1.91 0 0 0 
407 136 2 5.34 5.8 1.95 0 0 0 
408 136 2 3.78 5.31 1.98 0 0 0 
409 137 1 1.59 11.371 14.661 0 0 0 
410 137 2 1.81 10.761 15.421 0 0 0 
411 137 2 1.69 10.881 13.801 0 0 0 
412 138 1 13.471 10.591 12.341 0 0 0 
413 138 2 13.711 9.961 11.601 0 0 0 
414 138 2 12.571 10.991 12.161 0 0 0 
415 139 1 13.021 8.55 3.09 0 0 0 
416 139 2 12.161 8.24 3.51 0 0 0 
417 139 2 12.981 8.41 2.1 0 0 0 
418 140 1 17.591 17.471 11.541 0 0 0 
419 140 2 18.201 17.771 10.811 0 0 0 
420 140 2 17.211 16.581 11.321 0 0 0 
421 141 1 12.521 17.311 11.281 0 0 0 
422 141 2 13.361 17.361 10.741 0 0 0 
423 141 2 12.291 16.351 11.461 0 0 0 
424 142 1 0.83 12.581 10.221 0 0 0 
425 142 2 0.78 12.571 11.221 0 0 0 
426 142 2 0 12.171 9.841 0 0 0 
427 143 1 6.88 16.621 17.161 0 0 0 
428 143 2 6.32 17.431 17.251 0 0 0 
429 143 2 7.4 16.661 16.301 0 0 0 
430 144 1 9.03 0.86 1.33 0 0 0 
431 144 2 9.54 0.87 0.47 0 0 0 
432 144 2 9.59 0.44 2.04 0 0 0 
433 145 1 17.261 1.35 5.23 0 0 0 
434 145 2 17.991 1.18 4.56 0 0 0 
435 145 2 16.951 0.48 5.61 0 0 0 
436 146 1 13.881 15.731 4.77 0 0 0 
437 146 2 14.551 15.851 4.03 0 0 0 
438 146 2 13.481 16.621 5 0 0 0 
439 147 1 1.3 17.941 18.511 0 0 0 
440 147 2 0.89 17.201 19.041 0 0 0 
441 147 2 1.94 18.451 19.091 0 0 0 
442 148 1 12.801 9.27 6.72 0 0 0 
443 148 2 13.401 8.46 6.74 0 0 0 
444 148 2 13.201 9.96 6.12 0 0 0 
445 149 1 8.3 12.731 14.221 0 0 0 
446 149 2 8.25 13.061 15.171 0 0 0 
447 149 2 7.44 12.921 13.761 0 0 0 
448 150 1 6.72 16.161 1.54 0 0 0 
449 150 2 6.81 16.261 0.55 0 0 0 
450 150 2 6.32 15.271 1.75 0 0 0 
451 151 1 16.501 17.201 13.941 0 0 0 
452 151 2 17.031 17.301 13.101 0 0 0 
453 151 2 16.231 18.101 14.281 0 0 0 
454 152 1 18.411 1.75 9.631 0 0 0 
455 152 2 18.801 0.9 9.271 0 0 0 
456 152 2 17.431 1.77 9.441 0 0 0 
457 153 1 2.63 3.26 7.2 0 0 0 
458 153 2 1.84 3.77 6.86 0 0 0 
459 153 2 2.54 3.11 8.18 0 0 0 
460 154 1 11.941 16.121 0.31 0 0 0 
461 154 2 12.001 15.191 0.68 0 0 0 
462 154 2 11.351 16.121 20.26 0 0 -1 
463 155 1 8.22 10.021 13.721 0 0 0 
464 155 2 8.62 10.011 12.801 0 0 0 
465 155 2 8.32 10.941 14.121 0 0 0 
466 156 1 9.16 9.1 2.91 0 0 0 
467 156 2 9.79 9.48 2.23 0 0 0 
468 156 2 9.56 8.27 3.3 0 0 0 
469 157 1 15.041 16.071 0.44 0 0 0 
470 157 2 14.121 16.441 0.51 0 0 0 
471 157 2 15.421 16.271 20.29 0 0 -1 
472 158 1 3.72 12.881 14.901 0 0 0 
473 158 2 3.59 13.811 14.561 0 0 0 
474 158 2 2.88 12.361 14.771 0 0 0 
475 159 1 16.141 12.921 12.891 0 0 0 
476 159 2 16.741 12.951 13.691 0 0 0 
477 159 2 15.391 13.561 13.021 0 0 0 
478 160 1 10.391 10.981 6.96 0 0 0 
479 160 2 9.691 10.511 7.5 0 0 0 
480 160 2 10.981 10.301 6.53 0 0 0 
481 161 1 10.141 2.36 9.711 0 0 0 
482 161 2 10.061 2 8.781 0 0 0 
483 161 2 10.121 1.6 10.361 0 0 0 
484 162 1 5.9 14.871 4.91 0 0 0 
485 162 2 6.32 14.291 4.21 0 0 0 
486 162 2 5.46 15.661 4.47 0 0 0 
487 163 1 17.091 3.85 13.811 0 0 0 
488 163 2 17.821 4.54 13.851 0 0 0 
489 163 2 17.371 3.1 13.221 0 0 0 
490 164 1 2.55 13.481 2.9 0 0 0 
491 164 2 1.59 13.491 2.63 0 0 0 
492 164 2 2.67 14.011 3.74 0 0 0 
493 165 1 6.72 2.03 14.891 0 0 0 
494 165 2 7.62 1.87 14.491 0 0 0 
495 165 2 6.8 2.08 15.881 0 0 0 
496 166 1 0.75 3.45 0.33 0 0 0 
497 166 2 20.58 3.17 0.04 -1 0 0 
498 166 2 1.06 4.22 20.52 0 0 -1 
499 167 1 14.401 8.56 13.981 0 0 0 
500 167 2 13.831 9.08 13.351 0 0 0 
501 167 2 15.361 8.68 13.741 0 0 0 
502 168 1 11.831 13.351 1.19 0 0 0 
503 168 2 10.841 13.241 1.21 0 0 0 
504 168 2 12.171 13.501 2.12 0 0 0 
505 169 1 6.13 8.42 14.311 0 0 0 
506 169 2 6.69 9.23 14.141 0 0 0 
507 169 2 6.72 7.62 14.341 0 0 0 
508 170 1 14.931 17.671 9.591 0 0 0 
509 170 2 15.261 18.311 8.901 0 0 0 
510 170 2 15.591 17.611 10.341 0 0 0 
511 171 1 7.16 5.65 17.081 0 0 0 
512 171 2 7.35 6.3 17.821 0 0 0 
513 171 2 7.76 4.85 17.171 0 0 0 
514 172 1 14.501 12.201 16.331 0 0 0 
515 172 2 14.411 12.101 17.321 0 0 0 
516 172 2 15.461 12.131 16.071 0 0 0 
517 173 1 3.9 17.411 15.601 0 0 0 
518 173 2 2.99 17.821 15.581 0 0 0 
519 173 2 3.83 16.471 15.921 0 0 0 
520 174 1 16.741 8.83 12.541 0 0 0 
521 174 2 16.471 7.94 12.171 0 0 0 
522 174 2 16.751 9.51 11.811 0 0 0 
523 175 1 12.251 3.25 4.49 0 0 0 
524 175 2 12.901 2.51 4.38 0 0 0 
525 175 2 12.451 3.75 5.33 0 0 0 
526 176 1 5.94 7.45 6.52 0 0 0 
527 176 2 6.44 8.3 6.33 0 0 0 
528 176 2 5.06 7.47 6.04 0 0 0 
529 177 1 17.771 3.42 16.421 0 0 0 
530 177 2 17.601 3.73 15.481 0 0 0 
531 177 2 16.931 3.05 16.801 0 0 0 
532 178 1 17.301 9.341 15.171 0 0 0 
533 178 2 17.681 10.251 15.321 0 0 0 
534 178 2 17.221 9.171 14.181 0 0 0 
535 179 1 8.59 13.741 0.16 0 0 0 
536 179 2 8.13 13.891 1.04 0 0 0 
537 179 2 9.03 14.591 20.61 0 0 -1 
538 180 1 6.61 17.901 9.531 0 0 0 
539 180 2 6.15 18.781 9.401 0 0 0 
540 180 2 7.6 18.021 9.461 0 0 0 
541 181 1 14.081 18.511 17.201 0 0 0 
542 181 2 13.121 18.401 16.931 0 0 0 
543 181 2 14.641 17.841 16.721 0 0 0 
544 182 1 8.59 9.561 8.61 0 0 0 
545 182 2 9.13 8.871 9.09 0 0 0 
546 182 2 8.27 10.251 9.27 0 0 0 
547 183 1 10.831 9.841 0.87 0 0 0 
548 183 2 10.601 10.371 0.05 0 0 0 
549 183 2 11.641 9.281 0.68 0 0 0 
550 184 1 18.611 15.691 8.51 0 0 0 
551 184 2 17.901 15.571 7.81 0 0 0 
552 184 2 18.621 14.901 9.11 0 0 0 
553 185 1 6.72 13.911 16.241 0 0 0 
554 185 2 5.94 13.411 16.621 0 0 0 
555 185 2 6.69 14.861 16.551 0 0 0 
556 186 1 18.241 1.92 12.271 0 0 0 
557 186 2 18.201 1.02 12.711 0 0 0 
558 186 2 18.271 1.81 11.281 0 0 0 
559 187 1 4.28 4.24 5.2 0 0 0 
560 187 2 4.58 3.52 4.58 0 0 0 
561 187 2 3.89 3.84 6.03 0 0 0 
562 188 1 17.051 14.871 11.041 0 0 0 
563 188 2 16.121 14.621 10.771 0 0 0 
564 188 2 17.311 14.371 11.861 0 0 0 
565 189 1 3.17 5.47 12.801 0 0 0 
566 189 2 3.55 4.88 13.521 0 0 0 
567 189 2 3.57 5.21 11.921 0 0 0 
568 190 1 8.12 15.861 6.87 0 0 0 
569 190 2 8.44 15.961 5.93 0 0 0 
570 190 2 7.33 15.241 6.89 0 0 0 
571 191 1 14.241 2.14 11.121 0 0 0 
572 191 2 14.761 1.49 11.671 0 0 0 
573 191 2 13.751 2.77 11.731 0 0 0 
574 192 1 10.011 0.34 11.541 0 0 0 
575 192 2 9.381 20.37 11.231 0 -1 0 
576 192 2 10.941 20.73 11.541 0 -1 0 
577 193 1 7.7 13.301 3.01 0 0 0 
578 193 2 7.24 12.431 3.18 0 0 0 
579 193 2 8.61 13.271 3.42 0 0 0 
580 194 1 6.18 15.671 12.841 0 0 0 
581 194 2 6.13 16.491 13.411 0 0 0 
582 194 2 7.07 15.641 12.391 0 0 0 
583 195 1 13.521 0.52 1.68 0 0 0 
584 195 2 13.871 0.11 0.84 0 0 0 
585 195 2 12.621 0.14 1.88 0 0 0 
586 196 1 13.001 4.53 6.91 0 0 0 
587 196 2 12.411 5.33 6.95 0 0 0 
588 196 2 13.151 4.18 7.84 0 0 0 
589 197 1 15.931 2.21 8.82 0 0 0 
590 197 2 15.091 2.2 9.36 0 0 0 
591 197 2 15.951 3.04 8.26 0 0 0 
592 198 1 8.75 16.461 3.37 0 0 0 
593 198 2 7.98 16.111 2.83 0 0 0 
594 198 2 8.43 17.171 3.99 0 0 0 
595 199 1 18.421 17.671 1.461 0 0 0 
596 199 2 18.961 17.381 2.261 0 0 0 
597 199 2 18.721 18.571 1.171 0 0 0 
598 200 1 0.27 15.961 19.791 0 0 0 
599 200 2 0.08 15.001 20.001 0 0 0 
600 200 2 20.69 16.541 20.541 -1 0 0 
601 201 1 5.98 7.29 0.571 0 0 0 
602 201 2 6.22 7.98 20.641 0 0 -1 
603 201 2 5.2 7.62 1.111 0 0 0 
604 202 1 8.65 3.48 20.571 0 0 0 
605 202 2 9.24 4.11 20.081 0 0 0 
606 202 2 8.84 2.54 20.281 0 0 0 
607 203 1 13.621 11.441 3.321 0 0 0 
608 203 2 14.451 11.151 2.841 0 0 0 
609 203 2 13.131 12.111 2.761 0 0 0 
610 204 1 3.21 9.431 0.291 0 0 0 
611 204 2 4.03 9.821 20.621 0 0 -1 
612 204 2 2.94 8.611 20.551 0 0 -1 
613 205 1 16.321 13.771 19.431 0 0 0 
614 205 2 16.001 14.711 19.331 0 0 0 
615 205 2 15.561 13.141 19.311 0 0 0 
616 206 1 14.341 11.881 19.031 0 0 0 
617 206 2 14.661 11.121 19.601 0 0 0 
618 206 2 13.421 12.151 19.331 0 0 0 
619 207 1 2.97 0.35 20.331 0 0 0 
620 207 2 3.46 1.19 20.121 0 0 0 
621 207 2 3.59 20.45 0.031 0 -1 1 
622 208 1 10.321 5.49 18.781 0 0 0 
623 208 2 9.911 6.31 18.391 0 0 0 
624 208 2 10.961 5.75 19.511 0 0 0 
625 209 1 18.571 8.33 1.641 0 0 0 
626 209 2 18.991 7.69 2.281 0 0 0 
627 209 2 18.191 7.82 0.861 0 0 0 
628 210 1 8.15 5.72 1.121 0 0 0 
629 210 2 8.22 4.83 0.661 0 0 0 
630 210 2 7.21 6.06 1.041 0 0 0 
631 211 1 4.73 5 20.531 0 0 0 
632 211 2 5.34 5.8 20.571 0 0 0 
633 211 2 3.78 5.31 20.601 0 0 0 
634 212 1 13.881 15.731 2.641 0 0 0 
635 212 2 14.551 15.851 1.901 0 0 0 
636 212 2 13.481 16.621 2.871 0 0 0 
637 213 1 11.941 16.121 18.931 0 0 0 
638 213 2 12.001 15.191 19.301 0 0 0 
639 213 2 11.351 16.121 18.131 0 0 0 
640 214 1 0.75 3.45 18.951 0 0 0 
641 214 2 20.58 3.17 18.661 -1 0 0 
642 214 2 1.06 4.22 18.391 0 0 0 
643 215 1 2.25 0.621 9.961 0 0 0 
644 215 2 2.6 0.451 10.881 0 0 0 
645 215 2 1.37 0.171 9.841 0 0 0 
646 216 1 4.38 1.791 14.991 0 0 0 
647 216 2 5.2 1.231 15.081 0 0 0 
648 216 2 3.57 1.211 15.031 0 0 0 
649 217 1 15.941 19.761 14.801 0 0 0 
650 217 2 15.761 20.431 14.081 0 0 0 
651 217 2 15.911 20.221 15.691 0 0 0 
652 218 1 12.811 1.321 9.441 0 0 0 
653 218 2 11.951 0.821 9.311 0 0 0 
654 218 2 13.431 0.781 10.001 0 0 0 
655 219 1 2.02 0.721 14.981 0 0 0 
656 219 2 1.22 1.321 14.851 0 0 0 
657 219 2 1.92 0.231 15.841 0 0 0 
658 220 1 14.001 19.691 4.26 0 0 0 
659 220 2 13.761 19.321 3.36 0 0 0 
660 220 2 14.991 19.851 4.3 0 0 0 
661 221 1 15.471 0.091 17.291 0 0 0 
662 221 2 15.421 0.461 18.211 0 0 0 
663 221 2 14.751 20.151 17.171 0 -1 0 
664 222 1 6.14 19.841 1.17 0 0 0 
665 222 2 7.12 19.621 1.24 0 0 0 
666 222 2 5.83 19.671 0.24 0 0 0 
667 223 1 7.81 0.511 17.491 0 0 0 
668 223 2 8.48 20.651 17.921 0 -1 0 
669 223 2 7.08 0.701 18.141 0 0 0 
670 224 1 10.171 19.011 7.53 0 0 0 
671 224 2 9.451 19.061 6.84 0 0 0 
672 224 2 9.931 18.321 8.22 0 0 0 
673 225 1 9.15 19.511 14.021 0 0 0 
674 225 2 9.4 19.311 13.071 0 0 0 
675 225 2 9.87 20.071 14.441 0 0 0 
676 226 1 12.741 1.731 12.621 0 0 0 
677 226 2 12.951 2.471 13.261 0 0 0 
678 226 2 11.851 1.901 12.191 0 0 0 
679 227 1 5.04 19.121 17.401 0 0 0 
680 227 2 4.62 18.551 16.701 0 0 0 
681 227 2 4.38 19.811 17.721 0 0 0 
682 228 1 11.601 20.691 14.771 0 0 0 
683 228 2 11.601 0.581 15.541 0 1 0 
684 228 2 11.881 0.421 13.941 0 1 0 
685 229 1 9.03 19.481 1.33 0 0 0 
686 229 2 9.54 19.491 0.47 0 0 0 
687 229 2 9.59 19.061 2.04 0 0 0 
688 230 1 6.72 20.651 14.891 0 0 0 
689 230 2 7.62 20.491 14.491 0 0 0 
690 230 2 6.8 20.701 15.881 0 0 0 
691 231 1 0.75 1.321 0.33 0 0 0 
692 231 2 20.58 1.041 0.04 -1 0 0 
693 231 2 1.06 2.091 20.52 0 0 -1 
694 232 1 17.771 1.291 16.421 0 0 0 
695 232 2 17.601 1.601 15.481 0 0 0 
696 232 2 16.931 0.921 16.801 0 0 0 
697 233 1 14.241 0.011 11.121 0 0 0 
698 233 2 14.761 20.111 11.671 0 -1 0 
699 233 2 13.751 0.641 11.731 0 0 0 
700 234 1 10.011 18.961 11.541 0 0 0 
701 234 2 9.381 18.241 11.231 0 0 0 
702 234 2 10.941 18.601 11.541 0 0 0 
703 235 1 13.521 19.141 1.68 0 0 0 
704 235 2 13.871 18.731 0.84 0 0 0 
705 235 2 12.621 18.761 1.88 0 0 0 
706 236 1 15.401 0.611 19.871 0 0 0 
707 236 2 14.791 20.611 20.101 0 -1 0 
708 236 2 15.621 1.131 20.701 0 0 0 
709 237 1 0.75 1.321 18.951 0 0 0 
710 237 2 20.58 1.041 18.661 -1 0 0 
711 237 2 1.06 2.091 18.391 0 0 0 
712 238 1 0.181 17.131 4.83 0 0 0 
713 238 2 0.521 17.901 5.37 0 0 0 
714 238 2 0.621 17.131 3.93 0 0 0 
715 239 1 0.171 14.341 5.38 0 0 0 
716 239 2 20.661 15.301 5.38 -1 0 0 
717 239 2 20.211 13.801 5.83 -1 0 0 
718 240 1 0.271 10.911 8.86 0 0 0 
719 240 2 0.411 10.071 9.38 0 0 0 
720 240 2 20.471 11.551 9.41 -1 0 0 
721 241 1 19.841 6.43 5.63 0 0 0 
722 241 2 19.391 5.55 5.8 0 0 0 
723 241 2 19.831 6.97 6.47 0 0 0 
724 242 1 19.751 7.37 15.971 0 0 0 
725 242 2 20.631 7.24 16.421 0 0 0 
726 242 2 19.621 8.34 15.751 0 0 0 
727 243 1 19.381 8.11 7.89 0 0 0 
728 243 2 20.371 7.99 7.98 0 0 0 
729 243 2 19.141 9.06 8.1 0 0 0 
730 244 1 20.641 2.85 14.981 0 0 0 
731 244 2 19.841 3.45 14.851 0 0 0 
732 244 2 20.541 2.36 15.841 0 0 0 
733 245 1 0.361 17.851 12.411 0 0 0 
734 245 2 0.931 17.201 12.911 0 0 0 
735 245 2 0.201 17.521 11.481 0 0 0 
736 246 1 19.401 5.56 13.861 0 0 0 
737 246 2 20.321 5.55 13.451 0 0 0 
738 246 2 19.341 6.3 14.531 0 0 0 
739 247 1 1.971 8.13 12.511 0 0 0 
740 247 2 2.831 8.25 13.011 0 0 0 
741 247 2 1.551 7.26 12.781 0 0 0 
742 248 1 19.261 15.641 13.311 0 0 0 
743 248 2 18.801 16.461 12.971 0 0 0 
744 248 2 20.241 15.831 13.401 0 0 0 
745 249 1 1.541 11.001 5.01 0 0 0 
746 249 2 1.471 11.831 4.45 0 0 0 
747 249 2 1.581 10.201 4.41 0 0 0 
748 250 1 1.891 7.51 15.981 0 0 0 
749 250 2 2.571 8.06 15.511 0 0 0 
750 250 2 2.291 6.63 16.251 0 0 0 
751 251 1 2.911 0.5 17.401 0 0 0 
752 251 2 2.491 20.68 16.701 0 -1 0 
753 251 2 2.251 1.19 17.721 0 0 0 
754 252 1 0.941 2.13 12.311 0 0 0 
755 252 2 0.711 2.5 13.211 0 0 0 
756 252 2 0.641 1.18 12.251 0 0 0 
757 253 1 18.991 13.101 12.821 0 0 0 
758 253 2 19.521 12.611 13.501 0 0 0 
759 253 2 19.211 14.081 12.871 0 0 0 
760 254 1 1.061 8.1 9.491 0 0 0 
761 254 2 1.991 8.46 9.541 0 0 0 
762 254 2 1.001 7.25 10.011 0 0 0 
763 255 1 19.501 18.011 9.27 0 0 0 
764 255 2 19.081 17.151 9 0 0 0 
765 255 2 20.441 18.041 8.93 0 0 0 
766 256 1 19.021 5.44 11.141 0 0 0 
767 256 2 19.871 5.11 10.731 0 0 0 
768 256 2 19.151 5.59 12.121 0 0 0 
